 Entering Gaussian System, Link 0=g03
 Input=cluster-tetrad-h.com
 Output=cluster-tetrad-h.log
 Initial command:
 /apps/gaussian/g16-c01-avx/g16/l1.exe "/tmp/pbs.1232269.pbs/Gau-30393.inp" -scrdir="/tmp/pbs.1232269.pbs/"
 Entering Link 1 = /apps/gaussian/g16-c01-avx/g16/l1.exe PID=     30394.
  
 Copyright (c) 1988-2019, Gaussian, Inc.  All Rights Reserved.
  
 This is part of the Gaussian(R) 16 program.  It is based on
 the Gaussian(R) 09 system (copyright 2009, Gaussian, Inc.),
 the Gaussian(R) 03 system (copyright 2003, Gaussian, Inc.),
 the Gaussian(R) 98 system (copyright 1998, Gaussian, Inc.),
 the Gaussian(R) 94 system (copyright 1995, Gaussian, Inc.),
 the Gaussian 92(TM) system (copyright 1992, Gaussian, Inc.),
 the Gaussian 90(TM) system (copyright 1990, Gaussian, Inc.),
 the Gaussian 88(TM) system (copyright 1988, Gaussian, Inc.),
 the Gaussian 86(TM) system (copyright 1986, Carnegie Mellon
 University), and the Gaussian 82(TM) system (copyright 1983,
 Carnegie Mellon University). Gaussian is a federally registered
 trademark of Gaussian, Inc.
  
 This software contains proprietary and confidential information,
 including trade secrets, belonging to Gaussian, Inc.
  
 This software is provided under written license and may be
 used, copied, transmitted, or stored only in accord with that
 written license.
  
 The following legend is applicable only to US Government
 contracts under FAR:
  
                    RESTRICTED RIGHTS LEGEND
  
 Use, reproduction and disclosure by the US Government is
 subject to restrictions as set forth in subparagraphs (a)
 and (c) of the Commercial Computer Software - Restricted
 Rights clause in FAR 52.227-19.
  
 Gaussian, Inc.
 340 Quinnipiac St., Bldg. 40, Wallingford CT 06492
  
  
 ---------------------------------------------------------------
 Warning -- This program may not be used in any manner that
 competes with the business of Gaussian, Inc. or will provide
 assistance to any competitor of Gaussian, Inc.  The licensee
 of this program is prohibited from giving any competitor of
 Gaussian, Inc. access to this program.  By using this program,
 the user acknowledges that Gaussian, Inc. is engaged in the
 business of creating and licensing software in the field of
 computational chemistry and represents and warrants to the
 licensee that it is not a competitor of Gaussian, Inc. and that
 it will not use this program in any manner prohibited above.
 ---------------------------------------------------------------
  

 Cite this work as:
 Gaussian 16, Revision C.01,
 M. J. Frisch, G. W. Trucks, H. B. Schlegel, G. E. Scuseria, 
 M. A. Robb, J. R. Cheeseman, G. Scalmani, V. Barone, 
 G. A. Petersson, H. Nakatsuji, X. Li, M. Caricato, A. V. Marenich, 
 J. Bloino, B. G. Janesko, R. Gomperts, B. Mennucci, H. P. Hratchian, 
 J. V. Ortiz, A. F. Izmaylov, J. L. Sonnenberg, D. Williams-Young, 
 F. Ding, F. Lipparini, F. Egidi, J. Goings, B. Peng, A. Petrone, 
 T. Henderson, D. Ranasinghe, V. G. Zakrzewski, J. Gao, N. Rega, 
 G. Zheng, W. Liang, M. Hada, M. Ehara, K. Toyota, R. Fukuda, 
 J. Hasegawa, M. Ishida, T. Nakajima, Y. Honda, O. Kitao, H. Nakai, 
 T. Vreven, K. Throssell, J. A. Montgomery, Jr., J. E. Peralta, 
 F. Ogliaro, M. J. Bearpark, J. J. Heyd, E. N. Brothers, K. N. Kudin, 
 V. N. Staroverov, T. A. Keith, R. Kobayashi, J. Normand, 
 K. Raghavachari, A. P. Rendell, J. C. Burant, S. S. Iyengar, 
 J. Tomasi, M. Cossi, J. M. Millam, M. Klene, C. Adamo, R. Cammi, 
 J. W. Ochterski, R. L. Martin, K. Morokuma, O. Farkas, 
 J. B. Foresman, and D. J. Fox, Gaussian, Inc., Wallingford CT, 2019.
 
 ******************************************
 Gaussian 16:  ES64L-G16RevC.01  3-Jul-2019
                22-Mar-2020 
 ******************************************
 %mem=100GB
 %nprocshared=20
 Will use up to   20 processors via shared memory.
 ------------------
 #p sp b3lyp/6-31g*
 ------------------
 1/38=1,172=1/1;
 2/12=2,17=6,18=5,40=1/2;
 3/5=1,6=6,7=1,11=2,25=1,30=1,74=-5/1,2,3;
 4//1;
 5/5=2,38=5/2;
 6/7=2,8=2,9=2,10=2,28=1/1;
 99/5=1,9=1/99;
 Leave Link    1 at Sun Mar 22 21:51:30 2020, MaxMem= 13421772800 cpu:               0.8 elap:               0.0
 (Enter /apps/gaussian/g16-c01-avx/g16/l101.exe)
 --------------------
 cluster-tetrad-h.pdb
 --------------------
 Symbolic Z-matrix:
 Charge =  0 Multiplicity = 1
 N                     14.695   -7.669     22.205 
 C                     13.932   -7.048     23.317 
 C                     12.69    -7.883     23.677 
 O                     12.09    -7.588     24.723 
 C                     13.695   -5.556     23.092 
 C                     12.681   -5.185     22.062 
 C                     12.753   -4.314     21.032 
 N                     11.403   -5.688     22.058 
 C                     10.72    -5.113     21.078 
 N                     11.525   -4.262     20.448 
 H                     15.026   -8.619     22.289 
 H                     14.883   -7.141     21.365 
 H                     14.543   -7.07      24.22 
 H                     12.351   -8.7       23.04 
 H                     14.641   -5.171     22.713 
 H                     13.375   -5.125     24.041 
 H                     13.636   -3.754     20.724 
 H                     9.676    -5.305     20.831 
 H                     11.268   -3.675     19.667 
 N                     3.118    -4.185     19.835 
 C                     2.839    -5.537     19.343 
 C                     3.354    -5.715     17.928 
 O                     3.419    -6.886     17.507 
 H                     3.296    -4.032     20.817 
 H                     1.76     -5.691     19.343 
 H                     3.326    -6.262     19.995 
 H                     3.132    -3.406     19.192 
 N                     3.697    -4.622     17.237 
 C                     4.114    -4.645     15.798 
 C                     5.593    -5.003     15.681 
 O                     6.021    -5.3       14.561 
 C                     3.84     -3.348     15.071 
 O                     4.607    -2.264     15.598 
 H                     3.504    -5.409     15.316 
 H                     2.785    -3.107     15.201 
 H                     4.088    -3.476     14.017 
 H                     3.674    -3.731     17.712 
 H                     4.818    -2.438     16.518 
 N                     6.356    -4.995     16.773 
 C                     7.791    -5.356     16.725 
 C                     7.977    -6.733     16.063 
 O                     7.127    -7.63      16.218 
 C                     8.434    -5.236     18.1 
 S                     8.311    -3.555     18.782 
 H                     8.322    -4.643     16.095 
 H                     8.86     -6.925     15.453 
 H                     9.493    -5.473     17.992 
 H                     7.937    -5.927     18.781 
 H                     8.634    -2.663     17.835 
 H                     5.944    -4.736     17.658 
 
 ITRead=  0  0  0  0  0  0  0  0  0  0  0  0  0  0  0  0  0  0  0  0
 ITRead=  0  0  0  0  0  0  0  0  0  0  0  0  0  0  0  0  0  0  0  0
 ITRead=  0  0  0  0  0  0  0  0  0  0
 MicOpt= -1 -1 -1 -1 -1 -1 -1 -1 -1 -1 -1 -1 -1 -1 -1 -1 -1 -1 -1 -1
 MicOpt= -1 -1 -1 -1 -1 -1 -1 -1 -1 -1 -1 -1 -1 -1 -1 -1 -1 -1 -1 -1
 MicOpt= -1 -1 -1 -1 -1 -1 -1 -1 -1 -1
 NAtoms=     50 NQM=       50 NQMF=       0 NMMI=      0 NMMIF=      0
                NMic=       0 NMicF=      0.
                    Isotopes and Nuclear Properties:
 (Nuclear quadrupole moments (NQMom) in fm**2, nuclear magnetic moments (NMagM)
  in nuclear magnetons)

  Atom         1           2           3           4           5           6           7           8           9          10
 IAtWgt=          14          12          12          16          12          12          12          14          12          14
 AtmWgt=  14.0030740  12.0000000  12.0000000  15.9949146  12.0000000  12.0000000  12.0000000  14.0030740  12.0000000  14.0030740
 NucSpn=           2           0           0           0           0           0           0           2           0           2
 AtZEff=  -0.0000000  -0.0000000  -0.0000000  -0.0000000  -0.0000000  -0.0000000  -0.0000000  -0.0000000  -0.0000000  -0.0000000
 NQMom=    2.0440000   0.0000000   0.0000000   0.0000000   0.0000000   0.0000000   0.0000000   2.0440000   0.0000000   2.0440000
 NMagM=    0.4037610   0.0000000   0.0000000   0.0000000   0.0000000   0.0000000   0.0000000   0.4037610   0.0000000   0.4037610
 AtZNuc=   7.0000000   6.0000000   6.0000000   8.0000000   6.0000000   6.0000000   6.0000000   7.0000000   6.0000000   7.0000000

  Atom        11          12          13          14          15          16          17          18          19          20
 IAtWgt=           1           1           1           1           1           1           1           1           1          14
 AtmWgt=   1.0078250   1.0078250   1.0078250   1.0078250   1.0078250   1.0078250   1.0078250   1.0078250   1.0078250  14.0030740
 NucSpn=           1           1           1           1           1           1           1           1           1           2
 AtZEff=  -0.0000000  -0.0000000  -0.0000000  -0.0000000  -0.0000000  -0.0000000  -0.0000000  -0.0000000  -0.0000000  -0.0000000
 NQMom=    0.0000000   0.0000000   0.0000000   0.0000000   0.0000000   0.0000000   0.0000000   0.0000000   0.0000000   2.0440000
 NMagM=    2.7928460   2.7928460   2.7928460   2.7928460   2.7928460   2.7928460   2.7928460   2.7928460   2.7928460   0.4037610
 AtZNuc=   1.0000000   1.0000000   1.0000000   1.0000000   1.0000000   1.0000000   1.0000000   1.0000000   1.0000000   7.0000000

  Atom        21          22          23          24          25          26          27          28          29          30
 IAtWgt=          12          12          16           1           1           1           1          14          12          12
 AtmWgt=  12.0000000  12.0000000  15.9949146   1.0078250   1.0078250   1.0078250   1.0078250  14.0030740  12.0000000  12.0000000
 NucSpn=           0           0           0           1           1           1           1           2           0           0
 AtZEff=  -0.0000000  -0.0000000  -0.0000000  -0.0000000  -0.0000000  -0.0000000  -0.0000000  -0.0000000  -0.0000000  -0.0000000
 NQMom=    0.0000000   0.0000000   0.0000000   0.0000000   0.0000000   0.0000000   0.0000000   2.0440000   0.0000000   0.0000000
 NMagM=    0.0000000   0.0000000   0.0000000   2.7928460   2.7928460   2.7928460   2.7928460   0.4037610   0.0000000   0.0000000
 AtZNuc=   6.0000000   6.0000000   8.0000000   1.0000000   1.0000000   1.0000000   1.0000000   7.0000000   6.0000000   6.0000000

  Atom        31          32          33          34          35          36          37          38          39          40
 IAtWgt=          16          12          16           1           1           1           1           1          14          12
 AtmWgt=  15.9949146  12.0000000  15.9949146   1.0078250   1.0078250   1.0078250   1.0078250   1.0078250  14.0030740  12.0000000
 NucSpn=           0           0           0           1           1           1           1           1           2           0
 AtZEff=  -0.0000000  -0.0000000  -0.0000000  -0.0000000  -0.0000000  -0.0000000  -0.0000000  -0.0000000  -0.0000000  -0.0000000
 NQMom=    0.0000000   0.0000000   0.0000000   0.0000000   0.0000000   0.0000000   0.0000000   0.0000000   2.0440000   0.0000000
 NMagM=    0.0000000   0.0000000   0.0000000   2.7928460   2.7928460   2.7928460   2.7928460   2.7928460   0.4037610   0.0000000
 AtZNuc=   8.0000000   6.0000000   8.0000000   1.0000000   1.0000000   1.0000000   1.0000000   1.0000000   7.0000000   6.0000000

  Atom        41          42          43          44          45          46          47          48          49          50
 IAtWgt=          12          16          12          32           1           1           1           1           1           1
 AtmWgt=  12.0000000  15.9949146  12.0000000  31.9720718   1.0078250   1.0078250   1.0078250   1.0078250   1.0078250   1.0078250
 NucSpn=           0           0           0           0           1           1           1           1           1           1
 AtZEff=  -0.0000000  -0.0000000  -0.0000000  -0.0000000  -0.0000000  -0.0000000  -0.0000000  -0.0000000  -0.0000000  -0.0000000
 NQMom=    0.0000000   0.0000000   0.0000000   0.0000000   0.0000000   0.0000000   0.0000000   0.0000000   0.0000000   0.0000000
 NMagM=    0.0000000   0.0000000   0.0000000   0.0000000   2.7928460   2.7928460   2.7928460   2.7928460   2.7928460   2.7928460
 AtZNuc=   6.0000000   8.0000000   6.0000000  16.0000000   1.0000000   1.0000000   1.0000000   1.0000000   1.0000000   1.0000000
 Leave Link  101 at Sun Mar 22 21:51:31 2020, MaxMem= 13421772800 cpu:               2.7 elap:               0.2
 (Enter /apps/gaussian/g16-c01-avx/g16/l202.exe)
                          Input orientation:                          
 ---------------------------------------------------------------------
 Center     Atomic      Atomic             Coordinates (Angstroms)
 Number     Number       Type             X           Y           Z
 ---------------------------------------------------------------------
      1          7           0       14.695000   -7.669000   22.205000
      2          6           0       13.932000   -7.048000   23.317000
      3          6           0       12.690000   -7.883000   23.677000
      4          8           0       12.090000   -7.588000   24.723000
      5          6           0       13.695000   -5.556000   23.092000
      6          6           0       12.681000   -5.185000   22.062000
      7          6           0       12.753000   -4.314000   21.032000
      8          7           0       11.403000   -5.688000   22.058000
      9          6           0       10.720000   -5.113000   21.078000
     10          7           0       11.525000   -4.262000   20.448000
     11          1           0       15.026000   -8.619000   22.289000
     12          1           0       14.883000   -7.141000   21.365000
     13          1           0       14.543000   -7.070000   24.220000
     14          1           0       12.351000   -8.700000   23.040000
     15          1           0       14.641000   -5.171000   22.713000
     16          1           0       13.375000   -5.125000   24.041000
     17          1           0       13.636000   -3.754000   20.724000
     18          1           0        9.676000   -5.305000   20.831000
     19          1           0       11.268000   -3.675000   19.667000
     20          7           0        3.118000   -4.185000   19.835000
     21          6           0        2.839000   -5.537000   19.343000
     22          6           0        3.354000   -5.715000   17.928000
     23          8           0        3.419000   -6.886000   17.507000
     24          1           0        3.296000   -4.032000   20.817000
     25          1           0        1.760000   -5.691000   19.343000
     26          1           0        3.326000   -6.262000   19.995000
     27          1           0        3.132000   -3.406000   19.192000
     28          7           0        3.697000   -4.622000   17.237000
     29          6           0        4.114000   -4.645000   15.798000
     30          6           0        5.593000   -5.003000   15.681000
     31          8           0        6.021000   -5.300000   14.561000
     32          6           0        3.840000   -3.348000   15.071000
     33          8           0        4.607000   -2.264000   15.598000
     34          1           0        3.504000   -5.409000   15.316000
     35          1           0        2.785000   -3.107000   15.201000
     36          1           0        4.088000   -3.476000   14.017000
     37          1           0        3.674000   -3.731000   17.712000
     38          1           0        4.818000   -2.438000   16.518000
     39          7           0        6.356000   -4.995000   16.773000
     40          6           0        7.791000   -5.356000   16.725000
     41          6           0        7.977000   -6.733000   16.063000
     42          8           0        7.127000   -7.630000   16.218000
     43          6           0        8.434000   -5.236000   18.100000
     44         16           0        8.311000   -3.555000   18.782000
     45          1           0        8.322000   -4.643000   16.095000
     46          1           0        8.860000   -6.925000   15.453000
     47          1           0        9.493000   -5.473000   17.992000
     48          1           0        7.937000   -5.927000   18.781000
     49          1           0        8.634000   -2.663000   17.835000
     50          1           0        5.944000   -4.736000   17.658000
 ---------------------------------------------------------------------
                    Distance matrix (angstroms):
                    1          2          3          4          5
     1  N    0.000000
     2  C    1.484707   0.000000
     3  C    2.496519   1.539282   0.000000
     4  O    3.623936   2.379370   1.241427   0.000000
     5  C    2.500308   1.527370   2.601380   3.060263   0.000000
     6  C    3.201078   2.571147   3.144441   3.633815   1.492226
     7  C    4.050101   3.753135   4.442719   4.978165   2.583317
     8  N    3.844897   3.135366   3.015884   3.344278   2.517905
     9  C    4.858383   4.367412   4.278855   4.613952   3.619816
    10  N    4.974294   4.667612   4.989520   5.445836   3.657058
    11  H    1.009513   2.172938   2.815162   3.950622   3.434871
    12  H    1.009816   2.173328   3.271874   4.390538   2.627946
    13  H    2.107636   1.090511   2.095096   2.557057   2.069706
    14  H    2.693422   2.303344   1.090036   2.034000   3.419616
    15  H    2.549703   2.095382   3.477160   4.048406   1.089395
    16  H    3.403709   2.128933   2.865010   2.860545   1.090304
    17  H    4.317646   4.202583   5.163697   5.751667   2.976258
    18  H    5.715482   5.227981   4.881598   5.117338   4.618169
    19  H    5.842757   5.638841   5.984100   6.445959   4.599904
    20  N   12.319987  11.715959  10.957160  10.768925  11.151709
    21  C   12.381486  11.879834  11.014966  10.896422  11.485125
    22  C   12.277179  11.946225  11.176409  11.224876  11.559778
    23  O   12.240607  12.012723  11.180982  11.302641  11.771037
    24  H   12.045394  11.334494  10.547845  10.258480  10.753483
    25  H   13.394691  12.876013  11.960490  11.800505  12.510693
    26  H   11.666958  11.141845  10.191627  10.045892  10.844630
    27  H   12.686777  12.121047  11.467960  11.328144  11.463397
    28  N   12.446736  12.149366  11.531772  11.630985  11.623828
    29  C   12.733883  12.597734  12.087641  12.326129  12.075923
    30  C   11.511583  11.490407  11.072390  11.430267  10.994141
    31  O   11.801744  11.929248  11.586583  12.055453  11.477533
    32  C   13.689267  13.547508  13.151120  13.386605  12.897005
    33  O   13.214924  13.016345  12.734924  12.946269  12.230660
    34  H   13.334332  13.245584  12.665291  12.921265  12.819683
    35  H   14.550463  14.340730  13.883868  14.047451  13.685525
    36  H   14.040407  14.005482  13.664979  13.984241  13.378209
    37  H   12.536241  12.150929  11.580526  11.612908  11.519352
    38  H   12.540353  12.269617  11.952727  12.113072  11.477828
    39  N   10.305136  10.219321   9.804352  10.139275   9.700794
    40  C    9.112935   9.166745   8.872217   9.350467   8.685385
    41  C    9.150507   9.390515   9.028171   9.625144   9.137160
    42  O    9.649887   9.851018   9.308472   9.847241   9.730980
    43  C    7.872143   7.792845   7.498205   7.922270   7.259517
    44  S    8.330509   8.022650   7.865637   8.114272   7.181055
    45  H    9.332947   9.455866   9.330796   9.864747   8.869087
    46  H    8.954902   9.358569   9.122546   9.838972   9.143616
    47  H    7.045040   7.109217   6.953282   7.518244   6.608607
    48  H    7.773603   7.600787   7.098434   7.437318   7.202564
    49  H    8.994035   8.794848   8.822046   9.145715   7.849791
    50  H   10.288717  10.058716   9.572904   9.788843   9.501513
                    6          7          8          9         10
     6  C    0.000000
     7  C    1.350824   0.000000
     8  N    1.373430   2.182442   0.000000
     9  C    2.195213   2.184858   1.325713   0.000000
    10  N    2.189352   1.360788   2.154173   1.330085   0.000000
    11  H    4.164482   5.027883   4.665860   5.683326   5.884703
    12  H    3.026640   3.555238   3.834300   4.639582   4.517266
    13  H    3.417197   4.578535   4.055092   5.321404   5.587591
    14  H    3.663415   4.840523   3.306837   4.401838   5.205438
    15  H    2.065332   2.669223   3.343794   4.248627   3.958025
    16  H    2.098017   3.177843   2.852725   3.978510   4.132423
    17  H    2.179456   1.090024   3.241327   3.236550   2.188735
    18  H    3.249582   3.238890   2.152846   1.089867   2.157160
    19  H    3.164284   2.115838   3.128462   2.087838   1.010237
    20  N    9.869676   9.709927   8.708729   7.758649   8.429671
    21  C   10.216743  10.130935   8.985328   8.080852   8.848347
    22  C   10.215859   9.996940   9.046769   8.033857   8.673341
    23  O   10.460692  10.303609   9.267743   8.318664   9.013440
    24  H    9.537172   9.463646   8.366951   7.506827   8.240479
    25  H   11.265755  11.206913  10.017918   9.144720   9.930674
    26  H    9.640977   9.681859   8.356038   7.560709   8.451557
    27  H   10.128432   9.837363   9.046044   8.003036   8.529521
    28  N   10.213219   9.823850   9.152094   8.019781   8.468631
    29  C   10.626513  10.106267   9.664625   8.469750   8.757403
    30  C    9.538869   8.965128   8.653985   7.444853   7.646044
    31  O   10.031641   9.389668   9.236963   8.036595   8.125776
    32  C   11.419804  10.766069  10.559012   9.302348   9.423733
    33  O   10.747326  10.004408   9.982033   8.689993   8.681776
    34  H   11.391928  10.927748  10.388773   9.238989   9.591114
    35  H   12.219747  11.611134  11.311496  10.076080  10.259271
    36  H   11.894636  11.180103  11.093234   9.824506   9.863292
    37  H   10.107555   9.684551   9.080474   7.930069   8.331018
    38  H   10.005434   9.319860   9.198713   7.923562   7.984718
    39  N    8.247136   7.715209   7.340551   6.131186   6.384471
    40  C    7.240505   6.652628   6.449625   5.252304   5.385195
    41  C    7.778941   7.304293   6.983518   5.941269   6.158114
    42  O    8.424801   8.113096   7.494074   6.547101   6.969844
    43  C    5.808361   5.300988   4.968403   3.756249   4.002007
    44  S    5.701947   5.036859   4.984208   3.674542   3.688523
    45  H    7.409435   6.641985   6.792787   5.549918   5.417839
    46  H    7.829848   7.286838   7.184918   6.195447   6.256502
    47  H    5.177952   4.605701   4.497408   3.340438   3.409909
    48  H    5.815588   5.555414   4.775878   3.699175   4.292419
    49  H    6.372301   5.469257   5.886571   4.568473   4.212179
    50  H    8.061265   7.610811   7.075803   5.886315   6.257502
                   11         12         13         14         15
    11  H    0.000000
    12  H    1.748917   0.000000
    13  H    2.522192   2.876050   0.000000
    14  H    2.779602   3.412789   2.975595   0.000000
    15  H    3.495240   2.399285   2.426284   4.219582   0.000000
    16  H    4.243034   3.674139   2.275805   3.851130   1.835335
    17  H    5.296183   3.665741   4.903113   5.610526   2.640840
    18  H    6.459943   5.546972   6.187749   4.854002   5.311413
    19  H    6.740963   5.288155   6.556025   6.148223   4.784690
    20  N   12.941520  12.226776  12.573069  10.765943  11.917827
    21  C   12.911259  12.317436  12.771798  10.684125  12.279172
    22  C   12.794027  12.114631  12.908099  10.769809  12.271452
    23  O   12.672540  12.098450  12.993906  10.662331  12.489073
    24  H   12.680704  12.009361  12.136921  10.427127  11.558597
    25  H   13.901038  13.356800  13.751068  11.614266  13.324694
    26  H   12.153513  11.671066  12.013516   9.831912  11.687901
    27  H   13.350431  12.520310  12.996792  11.305906  12.164282
    28  N   13.032458  12.186564  13.129764  11.189129  12.249862
    29  C   13.304041  12.377111  13.622582  11.693492  12.606016
    30  C   12.071562  11.098784  12.541511  10.653321  11.460521
    31  O   12.321841  11.323371  13.002064  11.114061  11.864912
    32  C   14.318155  13.264582  14.564055  12.829107  13.356088
    33  O   13.918012  12.753023  14.005735  12.520982  12.639424
    34  H   13.844974  13.002764  14.279344  12.196732  13.371800
    35  H   15.181040  14.164380  15.339436  13.573501  14.186436
    36  H   14.646374  13.563088  15.044104  13.303453  13.778942
    37  H   13.179885  12.272497  13.101074  11.329999  12.139139
    38  H   13.255658  12.120885  13.242049  11.768399  11.930576
    39  N   10.896262   9.919753  11.260124   9.430925  10.195872
    40  C    9.692806   8.660964  10.232415   8.476742   9.100158
    41  C    9.592105   8.716106  10.476764   8.466374   9.543125
    42  O   10.011462   9.321280  10.924407   8.658797  10.231906
    43  C    8.511573   7.475216   8.839561   7.193454   7.733747
    44  S    9.112320   7.919752   8.986929   7.805331   7.624508
    45  H    9.955794   8.778361  10.516977   8.995839   9.165504
    46  H    9.360560   8.442448  10.448818   8.538166   9.444791
    47  H    7.679558   6.573542   8.175628   6.638072   6.991491
    48  H    8.355049   7.509845   8.632984   6.731419   7.808699
    49  H    9.806616   8.459514   9.752238   8.795083   8.134433
    50  H   10.909013   9.971539  11.065722   9.258989  10.068767
                   16         17         18         19         20
    16  H    0.000000
    17  H    3.598646   0.000000
    18  H    4.900929   4.254251   0.000000
    19  H    5.066934   2.594401   2.558566   0.000000
    20  N   11.125650  10.564299   6.727093   8.167669   0.000000
    21  C   11.543320  11.030025   7.000895   8.638290   1.465541
    22  C   11.753183  10.834328   6.968730   8.355664   2.456266
    23  O   12.038115  11.160000   7.259379   8.751167   3.578489
    24  H   10.638377  10.344155   6.505776   8.062427   1.009662
    25  H   12.541921  12.111916   8.063882   9.724777   2.086687
    26  H   10.892442  10.635676   6.475897   8.359158   2.093512
    27  H   11.462409  10.620835   7.008313   8.154292   1.010191
    28  N   11.841077  10.568648   7.009406   8.007606   2.697372
    29  C   12.407400  10.757688   7.530108   8.190835   4.183418
    30  C   11.422084   9.575056   6.579103   7.060978   4.904127
    31  O   11.999264   9.917707   7.257544   7.499525   6.122557
    32  C   13.211164  11.317370   8.430086   8.741014   4.890557
    33  O   12.503895  10.488986   7.894728   7.931999   4.884622
    34  H   13.177364  11.603573   8.277658   9.067395   4.697716
    35  H   13.941522  12.192881   9.165914   9.603597   4.769374
    36  H   13.764016  11.671565   9.000088   9.138627   5.940766
    37  H   11.666571  10.407407   6.944756   7.841811   2.241067
    38  H   11.706312   9.857962   7.100832   7.283466   4.116370
    39  N   10.104805   8.375493   5.252225   5.851955   4.529524
    40  C    9.206426   7.261021   4.518303   4.854962   5.734132
    41  C    9.765887   7.913510   5.259240   5.759415   6.658090
    42  O   10.320458   8.814448   5.760451   6.684722   6.404904
    43  C    7.727955   6.011864   3.000948   3.594964   5.689875
    44  S    7.467669   5.671560   3.020617   3.088928   5.336006
    45  H    9.428894   7.103278   4.970036   4.730235   6.424872
    46  H    9.868078   7.787738   5.675662   5.841127   7.725289
    47  H    7.195931   5.251974   2.849848   3.031345   6.759898
    48  H    7.608065   6.401233   2.759258   4.117288   5.231466
    49  H    8.188587   5.878487   4.128189   3.364272   6.061579
    50  H    9.803763   8.338558   4.931482   5.788504   3.609599
                   21         22         23         24         25
    21  C    0.000000
    22  C    1.516290   0.000000
    23  O    2.350978   1.246077   0.000000
    24  H    2.155586   3.343976   4.372247   0.000000
    25  H    1.089934   2.131581   2.747945   2.698936   0.000000
    26  H    1.089907   2.138336   2.566743   2.376864   1.789833
    27  H    2.156342   2.641678   3.877112   1.749113   2.669534
    28  N    2.451250   1.337826   2.296928   3.650384   3.054499
    29  C    3.871474   2.501879   2.902721   5.122036   4.382061
    30  C    4.613016   3.251011   3.406793   5.709426   5.345604
    31  O    5.748810   4.315299   4.238480   6.940532   6.416894
    32  C    4.903438   3.741836   4.316107   5.812083   5.297738
    33  O    5.278577   4.348369   5.139894   5.664142   5.820203
    34  H    4.083545   2.634137   2.643716   5.674539   4.397475
    35  H    4.802497   3.816013   4.472184   5.714561   4.988371
    36  H    5.845853   4.565939   4.925014   6.868508   6.220296
    37  H    2.572746   2.021215   3.171920   3.142373   3.188284
    38  H    4.636903   3.856180   4.766553   4.831017   5.283370
    39  N    4.389528   3.296123   3.569399   5.161870   5.311547
    40  C    5.604372   4.611188   4.697532   6.221131   6.583245
    41  C    6.211913   5.087895   4.783713   7.197755   7.106001
    42  O    5.703790   4.563645   3.995538   6.983764   6.506154
    43  C    5.739310   5.105431   5.312662   5.935550   6.803995
    44  S    5.846865   5.474191   6.054160   5.433137   6.913235
    45  H    6.435218   5.402786   5.573527   6.923242   7.396462
    46  H    7.301444   6.156765   5.815919   8.252275   8.189314
    47  H    6.790067   6.144101   6.255020   6.961316   7.853153
    48  H    5.143690   4.666524   4.791146   5.410656   6.207002
    49  H    6.641985   6.099324   6.718448   6.265838   7.661248
    50  H    3.622410   2.781985   3.319778   4.181722   4.610543
                   26         27         28         29         30
    26  H    0.000000
    27  H    2.973076   0.000000
    28  N    3.230140   2.370634   0.000000
    29  C    4.566228   3.744153   1.498379   0.000000
    30  C    5.033385   4.575374   2.482159   1.526202   0.000000
    31  O    6.141403   5.777518   3.608550   2.365553   1.235230
    32  C    5.744682   4.181778   2.516959   1.511891   2.486792
    33  O    6.079356   4.049275   3.012405   2.439715   2.912251
    34  H    4.759447   4.378786   2.084912   1.090009   2.159162
    35  H    5.764472   4.017199   2.696714   2.118512   3.421999
    36  H    6.639196   5.263028   3.440145   2.130539   2.713973
    37  H    3.426245   1.609282   1.009968   2.166193   3.070099
    38  H    5.379458   3.306039   2.558018   2.425874   2.807208
    39  N    4.600812   4.332512   2.724831   2.469755   1.332178
    40  C    5.608026   5.620931   4.190672   3.858132   2.458810
    41  C    6.108540   6.658348   4.914570   4.399175   2.970232
    42  O    5.530348   6.530458   4.674540   4.262018   3.089119
    43  C    5.543949   5.714243   4.853961   4.930607   3.738600
    44  S    5.800814   5.197340   4.981416   5.263760   4.370404
    45  H    6.541497   6.169091   4.763951   4.218469   2.783601
    46  H    7.189888   7.692429   5.928156   5.276546   3.797283
    47  H    6.531954   6.795205   5.906593   5.867952   4.557589
    48  H    4.779889   5.441726   4.697293   5.015690   3.994761
    49  H    6.767072   5.715374   5.345021   5.339297   4.400341
    50  H    3.826770   3.468343   2.288940   2.610897   2.025591
                   31         32         33         34         35
    31  O    0.000000
    32  C    2.971055   0.000000
    33  O    3.506004   1.428662   0.000000
    34  H    2.630056   2.102532   3.344721   0.000000
    35  H    3.961129   1.089957   2.046446   2.414413   0.000000
    36  H    2.712822   1.090323   2.058608   2.401030   1.798840
    37  H    4.230718   2.673785   2.737074   2.930085   2.735840
    38  H    3.669891   1.969364   0.959790   3.463848   2.512994
    39  N    2.257918   3.455383   3.449346   3.229264   4.334486
    40  C    2.796235   4.730558   4.579132   4.512921   5.695666
    41  C    2.852267   5.436640   5.616501   4.724269   6.391227
    42  O    3.065581   5.518650   5.960600   4.344258   6.351754
    43  C    4.283828   5.817579   5.453322   5.664405   6.696868
    44  S    5.109400   5.814139   5.052143   6.209486   6.600071
    45  H    2.842430   4.776392   4.439355   4.940316   5.815230
    46  H    3.390606   6.175861   6.311415   5.568102   7.179572
    47  H    4.884309   6.708523   6.316796   6.559969   7.641001
    48  H    4.676814   6.099242   5.885402   5.650313   6.878365
    49  H    4.949809   5.575962   4.623862   6.340566   6.430077
    50  H    3.148878   3.611915   3.484531   3.448404   4.320853
                   36         37         38         39         40
    36  H    0.000000
    37  H    3.726855   0.000000
    38  H    2.804522   2.099100   0.000000
    39  N    3.879010   3.110071   2.994782   0.000000
    40  C    4.957809   4.534808   4.170887   1.480490   0.000000
    41  C    5.469779   5.499729   5.351012   2.480400   1.539146
    42  O    5.597824   5.418251   5.690197   2.801016   2.422606
    43  C    6.217411   5.007312   4.838076   2.477316   1.522654
    44  S    6.367511   4.762105   4.309807   3.151461   2.783029
    45  H    4.858676   5.005031   4.161607   2.109205   1.089601
    46  H    6.060502   6.496100   6.132304   3.425977   2.285280
    47  H    7.000190   6.080602   5.765373   3.399296   2.125037
    48  H    6.596810   4.913079   5.198312   2.720340   2.138806
    49  H    5.992012   5.075170   4.043139   3.428608   3.032326
    50  H    4.276589   2.483111   2.801478   1.009975   2.160162
                   41         42         43         44         45
    41  C    0.000000
    42  O    1.245445   0.000000
    43  C    2.568896   3.313821   0.000000
    44  S    4.195736   4.957981   1.818245   0.000000
    45  H    2.118525   3.219522   2.093852   2.898937   0.000000
    46  H    1.090254   2.021272   3.168723   4.768704   2.430871
    47  H    2.758060   3.660284   1.090557   2.387456   2.378813
    48  H    2.835271   3.182024   1.090069   2.401304   3.001912
    49  H    4.487375   5.436619   2.594331   1.340448   2.654307
    50  H    3.265750   3.442140   2.577880   2.874165   2.847192
                   46         47         48         49         50
    46  H    0.000000
    47  H    2.992576   0.000000
    48  H    3.594929   1.802713   0.000000
    49  H    4.887703   2.942555   3.469066   0.000000
    50  H    4.261080   3.640072   2.579081   3.400700   0.000000
 Stoichiometry    C14H24N6O5S
 Framework group  C1[X(C14H24N6O5S)]
 Deg. of freedom   144
 Full point group                 C1      NOp   1
 Largest Abelian subgroup         C1      NOp   1
 Largest concise Abelian subgroup C1      NOp   1
                         Standard orientation:                         
 ---------------------------------------------------------------------
 Center     Atomic      Atomic             Coordinates (Angstroms)
 Number     Number       Type             X           Y           Z
 ---------------------------------------------------------------------
      1          7           0        7.484431   -0.825911    1.446663
      2          6           0        7.402528    0.344348    0.536641
      3          6           0        6.728730    1.543395    1.227780
      4          8           0        6.791101    2.640968    0.651078
      5          6           0        6.855403   -0.031237   -0.839022
      6          6           0        5.393986   -0.320583   -0.924325
      7          6           0        4.735335   -1.361415   -1.478918
      8          7           0        4.433993    0.541197   -0.453094
      9          6           0        3.237723    0.049889   -0.744760
     10          7           0        3.402257   -1.105990   -1.381942
     11          1           0        7.944980   -0.738532    2.340741
     12          1           0        7.079755   -1.709100    1.171087
     13          1           0        8.412459    0.692115    0.316843
     14          1           0        6.217840    1.433734    2.184412
     15          1           0        7.347506   -0.968740   -1.095352
     16          1           0        7.068669    0.795618   -1.516953
     17          1           0        5.189990   -2.246651   -1.923664
     18          1           0        2.281901    0.514670   -0.503531
     19          1           0        2.661817   -1.695541   -1.735153
     20          7           0       -3.762209    3.335829   -1.377355
     21          6           0       -4.060666    3.425476    0.054671
     22          6           0       -4.418917    2.064505    0.619071
     23          8           0       -4.426287    1.966111    1.861235
     24          1           0       -3.084692    3.959295   -1.791694
     25          1           0       -4.910572    4.094018    0.191300
     26          1           0       -3.186130    3.811234    0.578385
     27          1           0       -4.234343    2.650634   -1.950140
     28          7           0       -4.699876    1.077332   -0.239027
     29          6           0       -5.174719   -0.280064    0.181850
     30          6           0       -3.989224   -1.157668    0.573905
     31          8           0       -4.232475   -2.211292    1.170980
     32          6           0       -6.006662   -0.979455   -0.869119
     33          8           0       -5.252441   -1.267345   -2.047823
     34          1           0       -5.825178   -0.122298    1.042160
     35          1           0       -6.823718   -0.314016   -1.147715
     36          1           0       -6.383988   -1.914642   -0.454564
     37          1           0       -4.585158    1.256812   -1.226277
     38          1           0       -4.533458   -0.636911   -2.130358
     39          7           0       -2.753672   -0.759156    0.275081
     40          6           0       -1.564213   -1.556645    0.650645
     41          6           0       -1.578842   -1.866350    2.158238
     42          8           0       -2.042101   -1.042556    2.969342
     43          6           0       -0.282432   -0.893365    0.165288
     44         16           0       -0.251863   -0.674374   -1.639461
     45          1           0       -1.600411   -2.520222    0.143261
     46          1           0       -1.180648   -2.814845    2.519419
     47          1           0        0.549725   -1.544975    0.434052
     48          1           0       -0.193154    0.084856    0.637902
     49          1           0       -0.663484   -1.802871   -2.234326
     50          1           0       -2.624913    0.111183   -0.220884
 ---------------------------------------------------------------------
 Rotational constants (GHZ):           0.3083986           0.0567517           0.0548884
 Leave Link  202 at Sun Mar 22 21:51:31 2020, MaxMem= 13421772800 cpu:               0.2 elap:               0.0
 (Enter /apps/gaussian/g16-c01-avx/g16/l301.exe)
 Standard basis: 6-31G(d) (6D, 7F)
 Ernie: Thresh=  0.10000D-02 Tol=  0.10000D-05 Strict=F.
 There are   442 symmetry adapted cartesian basis functions of A   symmetry.
 There are   442 symmetry adapted basis functions of A   symmetry.
   442 basis functions,   848 primitive gaussians,   442 cartesian basis functions
   103 alpha electrons      103 beta electrons
       nuclear repulsion energy      2436.3606496628 Hartrees.
 IExCor=  402 DFT=T Ex+Corr=B3LYP ExCW=0 ScaHFX=  0.200000
 ScaDFX=  0.800000  0.720000  1.000000  0.810000 ScalE2=  1.000000  1.000000
 IRadAn=      5 IRanWt=     -1 IRanGd=            0 ICorTp=0 IEmpDi=  4
 NAtoms=   50 NActive=   50 NUniq=   50 SFac= 1.00D+00 NAtFMM=   60 NAOKFM=F Big=F
 Integral buffers will be    131072 words long.
 Raffenetti 2 integral format.
 Two-electron integral symmetry is turned on.
 Leave Link  301 at Sun Mar 22 21:51:31 2020, MaxMem= 13421772800 cpu:               1.3 elap:               0.1
 (Enter /apps/gaussian/g16-c01-avx/g16/l302.exe)
 NPDir=0 NMtPBC=     1 NCelOv=     1 NCel=       1 NClECP=     1 NCelD=      1
         NCelK=      1 NCelE2=     1 NClLst=     1 CellRange=     0.0.
 One-electron integrals computed using PRISM.
 One-electron integral symmetry used in STVInt
 NBasis=   442 RedAO= T EigKep=  1.29D-03  NBF=   442
 NBsUse=   442 1.00D-06 EigRej= -1.00D+00 NBFU=   442
 Precomputing XC quadrature grid using
 IXCGrd= 4 IRadAn=           5 IRanWt=          -1 IRanGd=           0 AccXCQ= 0.00D+00.
 Generated NRdTot=       0 NPtTot=           0 NUsed=           0 NTot=          32
 NSgBfM=   431   431   431   431   431 MxSgAt=    50 MxSgA2=    50.
 Leave Link  302 at Sun Mar 22 21:51:32 2020, MaxMem= 13421772800 cpu:              14.5 elap:               0.8
 (Enter /apps/gaussian/g16-c01-avx/g16/l303.exe)
 DipDrv:  MaxL=1.
 Leave Link  303 at Sun Mar 22 21:51:32 2020, MaxMem= 13421772800 cpu:               1.2 elap:               0.1
 (Enter /apps/gaussian/g16-c01-avx/g16/l401.exe)
 ExpMin= 1.17D-01 ExpMax= 2.19D+04 ExpMxC= 3.30D+03 IAcc=3 IRadAn=         5 AccDes= 0.00D+00
 Harris functional with IExCor=  402 and IRadAn=       5 diagonalized for initial guess.
 HarFok:  IExCor=  402 AccDes= 0.00D+00 IRadAn=         5 IDoV= 1 UseB2=F ITyADJ=14
 ICtDFT=  3500011 ScaDFX=  1.000000  1.000000  1.000000  1.000000
 FoFCou: FMM=F IPFlag=           0 FMFlag=      100000 FMFlg1=           0
         NFxFlg=           0 DoJE=T BraDBF=F KetDBF=T FulRan=T
         wScrn=  0.000000 ICntrl=       500 IOpCl=  0 I1Cent=   200000004 NGrid=           0
         NMat0=    1 NMatS0=      1 NMatT0=    0 NMatD0=    1 NMtDS0=    0 NMtDT0=    0
 Petite list used in FoFCou.
 Harris En= -1650.57127521364    
 JPrj=0 DoOrth=F DoCkMO=F.
 Leave Link  401 at Sun Mar 22 21:51:34 2020, MaxMem= 13421772800 cpu:              44.4 elap:               2.3
 (Enter /apps/gaussian/g16-c01-avx/g16/l502.exe)
 Integral symmetry usage will be decided dynamically.
 Closed shell SCF:
 Using DIIS extrapolation, IDIIS=  1040.
 NGot= 13421772800 LenX= 13421367119 LenY= 13421171313
 Requested convergence on RMS density matrix=1.00D-08 within 128 cycles.
 Requested convergence on MAX density matrix=1.00D-06.
 Requested convergence on             energy=1.00D-06.
 No special actions if energy rises.
 Fock matrices will be formed incrementally for  20 cycles.
 Integral accuracy reduced to 1.0D-05 until final iterations.

 Cycle   1  Pass 0  IDiag  1:
 FoFJK:  IHMeth= 1 ICntrl=       0 DoSepK=F KAlg= 0 I1Cent=           0 FoldK=F
 IRaf= 590000000 NMat=       1 IRICut=       1 DoRegI=T DoRafI=F ISym2E= 0 IDoP0=0 IntGTp=1.
 FoFCou: FMM=F IPFlag=           0 FMFlag=      100000 FMFlg1=           0
         NFxFlg=           0 DoJE=F BraDBF=F KetDBF=F FulRan=T
         wScrn=  0.000000 ICntrl=         0 IOpCl=  0 I1Cent=           0 NGrid=           0
         NMat0=    1 NMatS0=      1 NMatT0=    0 NMatD0=    1 NMtDS0=    0 NMtDT0=    0
 Symmetry not used in FoFCou.
 E= -1649.93967644414    
 DIIS: error= 3.19D-02 at cycle   1 NSaved=   1.
 NSaved= 1 IEnMin= 1 EnMin= -1649.93967644414     IErMin= 1 ErrMin= 3.19D-02
 ErrMax= 3.19D-02  0.00D+00 EMaxC= 1.00D-01 BMatC= 7.93D-01 BMatP= 7.93D-01
 IDIUse=3 WtCom= 6.81D-01 WtEn= 3.19D-01
 Coeff-Com:  0.100D+01
 Coeff-En:   0.100D+01
 Coeff:      0.100D+01
 Gap=     0.329 Goal=   None    Shift=    0.000
 GapD=    0.329 DampG=1.000 DampE=0.500 DampFc=0.5000 IDamp=-1.
 Damping current iteration by 5.00D-01
 RMSDP=6.19D-03 MaxDP=4.35D-01              OVMax= 3.99D-01

 Cycle   2  Pass 0  IDiag  1:
 RMSU=  3.09D-03    CP:  9.93D-01
 E= -1650.02398490224     Delta-E=       -0.084308458099 Rises=F Damp=T
 DIIS: error= 1.86D-02 at cycle   2 NSaved=   2.
 NSaved= 2 IEnMin= 2 EnMin= -1650.02398490224     IErMin= 2 ErrMin= 1.86D-02
 ErrMax= 1.86D-02  0.00D+00 EMaxC= 1.00D-01 BMatC= 1.97D-01 BMatP= 7.93D-01
 IDIUse=3 WtCom= 8.14D-01 WtEn= 1.86D-01
 Coeff-Com:  0.285D+00 0.715D+00
 Coeff-En:   0.444D+00 0.556D+00
 Coeff:      0.315D+00 0.685D+00
 Gap=     0.257 Goal=   None    Shift=    0.000
 RMSDP=2.09D-03 MaxDP=2.01D-01 DE=-8.43D-02 OVMax= 2.55D-01

 Cycle   3  Pass 0  IDiag  1:
 RMSU=  1.49D-03    CP:  9.82D-01  5.28D-01
 E= -1650.51349624505     Delta-E=       -0.489511342805 Rises=F Damp=F
 DIIS: error= 1.69D-02 at cycle   3 NSaved=   3.
 NSaved= 3 IEnMin= 3 EnMin= -1650.51349624505     IErMin= 3 ErrMin= 1.69D-02
 ErrMax= 1.69D-02  0.00D+00 EMaxC= 1.00D-01 BMatC= 1.32D-01 BMatP= 1.97D-01
 IDIUse=3 WtCom= 8.31D-01 WtEn= 1.69D-01
 Coeff-Com:  0.112D+00 0.437D+00 0.450D+00
 Coeff-En:   0.000D+00 0.000D+00 0.100D+01
 Coeff:      0.933D-01 0.363D+00 0.543D+00
 Gap=     0.159 Goal=   None    Shift=    0.000
 RMSDP=1.17D-03 MaxDP=7.04D-02 DE=-4.90D-01 OVMax= 1.21D-01

 Cycle   4  Pass 0  IDiag  1:
 RMSU=  7.19D-04    CP:  9.90D-01  6.54D-01  4.45D-01
 E= -1650.60023433844     Delta-E=       -0.086738093397 Rises=F Damp=F
 DIIS: error= 9.23D-03 at cycle   4 NSaved=   4.
 NSaved= 4 IEnMin= 4 EnMin= -1650.60023433844     IErMin= 4 ErrMin= 9.23D-03
 ErrMax= 9.23D-03  0.00D+00 EMaxC= 1.00D-01 BMatC= 3.62D-02 BMatP= 1.32D-01
 IDIUse=3 WtCom= 9.08D-01 WtEn= 9.23D-02
 Coeff-Com:  0.249D-01 0.737D-01 0.342D+00 0.559D+00
 Coeff-En:   0.000D+00 0.000D+00 0.244D+00 0.756D+00
 Coeff:      0.226D-01 0.669D-01 0.333D+00 0.577D+00
 Gap=     0.149 Goal=   None    Shift=    0.000
 RMSDP=4.76D-04 MaxDP=3.59D-02 DE=-8.67D-02 OVMax= 3.92D-02

 Cycle   5  Pass 0  IDiag  1:
 RMSU=  1.80D-04    CP:  9.88D-01  5.90D-01  6.25D-01  6.01D-01
 E= -1650.62788701938     Delta-E=       -0.027652680935 Rises=F Damp=F
 DIIS: error= 1.32D-03 at cycle   5 NSaved=   5.
 NSaved= 5 IEnMin= 5 EnMin= -1650.62788701938     IErMin= 5 ErrMin= 1.32D-03
 ErrMax= 1.32D-03  0.00D+00 EMaxC= 1.00D-01 BMatC= 2.02D-03 BMatP= 3.62D-02
 IDIUse=3 WtCom= 9.87D-01 WtEn= 1.32D-02
 Coeff-Com:  0.576D-02 0.489D-02 0.156D+00 0.341D+00 0.493D+00
 Coeff-En:   0.000D+00 0.000D+00 0.000D+00 0.000D+00 0.100D+01
 Coeff:      0.568D-02 0.483D-02 0.154D+00 0.336D+00 0.499D+00
 Gap=     0.149 Goal=   None    Shift=    0.000
 RMSDP=1.20D-04 MaxDP=7.49D-03 DE=-2.77D-02 OVMax= 1.10D-02

 Cycle   6  Pass 0  IDiag  1:
 RMSU=  6.49D-05    CP:  9.88D-01  5.99D-01  6.16D-01  6.66D-01  5.30D-01
 E= -1650.62942155480     Delta-E=       -0.001534535419 Rises=F Damp=F
 DIIS: error= 6.23D-04 at cycle   6 NSaved=   6.
 NSaved= 6 IEnMin= 6 EnMin= -1650.62942155480     IErMin= 6 ErrMin= 6.23D-04
 ErrMax= 6.23D-04  0.00D+00 EMaxC= 1.00D-01 BMatC= 2.67D-04 BMatP= 2.02D-03
 IDIUse=3 WtCom= 9.94D-01 WtEn= 6.23D-03
 Coeff-Com:  0.163D-02-0.483D-02 0.584D-01 0.140D+00 0.313D+00 0.492D+00
 Coeff-En:   0.000D+00 0.000D+00 0.000D+00 0.000D+00 0.907D-01 0.909D+00
 Coeff:      0.162D-02-0.480D-02 0.580D-01 0.139D+00 0.312D+00 0.495D+00
 Gap=     0.150 Goal=   None    Shift=    0.000
 RMSDP=4.04D-05 MaxDP=2.65D-03 DE=-1.53D-03 OVMax= 4.18D-03

 Cycle   7  Pass 0  IDiag  1:
 RMSU=  2.21D-05    CP:  9.88D-01  5.98D-01  6.21D-01  6.61D-01  5.86D-01
                    CP:  5.19D-01
 E= -1650.62961987597     Delta-E=       -0.000198321173 Rises=F Damp=F
 DIIS: error= 2.78D-04 at cycle   7 NSaved=   7.
 NSaved= 7 IEnMin= 7 EnMin= -1650.62961987597     IErMin= 7 ErrMin= 2.78D-04
 ErrMax= 2.78D-04  0.00D+00 EMaxC= 1.00D-01 BMatC= 2.75D-05 BMatP= 2.67D-04
 IDIUse=3 WtCom= 9.97D-01 WtEn= 2.78D-03
 Coeff-Com:  0.541D-03-0.400D-02 0.169D-01 0.413D-01 0.131D+00 0.299D+00
 Coeff-Com:  0.515D+00
 Coeff-En:   0.000D+00 0.000D+00 0.000D+00 0.000D+00 0.000D+00 0.307D-01
 Coeff-En:   0.969D+00
 Coeff:      0.540D-03-0.399D-02 0.168D-01 0.411D-01 0.131D+00 0.299D+00
 Coeff:      0.516D+00
 Gap=     0.150 Goal=   None    Shift=    0.000
 RMSDP=1.26D-05 MaxDP=8.77D-04 DE=-1.98D-04 OVMax= 1.38D-03

 Cycle   8  Pass 0  IDiag  1:
 RMSU=  6.42D-06    CP:  9.88D-01  5.96D-01  6.21D-01  6.61D-01  5.92D-01
                    CP:  5.87D-01  6.02D-01
 E= -1650.62964189212     Delta-E=       -0.000022016144 Rises=F Damp=F
 DIIS: error= 5.12D-05 at cycle   8 NSaved=   8.
 NSaved= 8 IEnMin= 8 EnMin= -1650.62964189212     IErMin= 8 ErrMin= 5.12D-05
 ErrMax= 5.12D-05  0.00D+00 EMaxC= 1.00D-01 BMatC= 1.63D-06 BMatP= 2.75D-05
 IDIUse=1 WtCom= 1.00D+00 WtEn= 0.00D+00
 Coeff-Com:  0.291D-03-0.176D-02 0.497D-02 0.109D-01 0.459D-01 0.116D+00
 Coeff-Com:  0.262D+00 0.562D+00
 Coeff:      0.291D-03-0.176D-02 0.497D-02 0.109D-01 0.459D-01 0.116D+00
 Coeff:      0.262D+00 0.562D+00
 Gap=     0.150 Goal=   None    Shift=    0.000
 RMSDP=3.70D-06 MaxDP=2.15D-04 DE=-2.20D-05 OVMax= 3.81D-04

 Initial convergence to 1.0D-05 achieved.  Increase integral accuracy.
 Cycle   9  Pass 1  IDiag  1:
 E= -1650.62964964124     Delta-E=       -0.000007749124 Rises=F Damp=F
 DIIS: error= 3.21D-05 at cycle   1 NSaved=   1.
 NSaved= 1 IEnMin= 1 EnMin= -1650.62964964124     IErMin= 1 ErrMin= 3.21D-05
 ErrMax= 3.21D-05  0.00D+00 EMaxC= 1.00D-01 BMatC= 7.26D-07 BMatP= 7.26D-07
 IDIUse=1 WtCom= 1.00D+00 WtEn= 0.00D+00
 Coeff-Com:  0.100D+01
 Coeff:      0.100D+01
 Gap=     0.150 Goal=   None    Shift=    0.000
 RMSDP=3.70D-06 MaxDP=2.15D-04 DE=-7.75D-06 OVMax= 5.00D-04

 Cycle  10  Pass 1  IDiag  1:
 RMSU=  1.10D-05    CP:  1.00D+00
 E= -1650.62964846913     Delta-E=        0.000001172107 Rises=F Damp=F
 DIIS: error= 7.61D-05 at cycle   2 NSaved=   2.
 NSaved= 2 IEnMin= 1 EnMin= -1650.62964964124     IErMin= 1 ErrMin= 3.21D-05
 ErrMax= 7.61D-05  0.00D+00 EMaxC= 1.00D-01 BMatC= 2.17D-06 BMatP= 7.26D-07
 IDIUse=1 WtCom= 1.00D+00 WtEn= 0.00D+00
 Coeff-Com:  0.650D+00 0.350D+00
 Coeff:      0.650D+00 0.350D+00
 Gap=     0.150 Goal=   None    Shift=    0.000
 RMSDP=3.27D-06 MaxDP=2.59D-04 DE= 1.17D-06 OVMax= 4.33D-04

 Cycle  11  Pass 1  IDiag  1:
 RMSU=  3.05D-06    CP:  1.00D+00  8.93D-01
 E= -1650.62965023505     Delta-E=       -0.000001765915 Rises=F Damp=F
 DIIS: error= 1.54D-05 at cycle   3 NSaved=   3.
 NSaved= 3 IEnMin= 3 EnMin= -1650.62965023505     IErMin= 3 ErrMin= 1.54D-05
 ErrMax= 1.54D-05  0.00D+00 EMaxC= 1.00D-01 BMatC= 6.42D-08 BMatP= 7.26D-07
 IDIUse=1 WtCom= 1.00D+00 WtEn= 0.00D+00
 Coeff-Com:  0.672D-01 0.153D+00 0.780D+00
 Coeff:      0.672D-01 0.153D+00 0.780D+00
 Gap=     0.150 Goal=   None    Shift=    0.000
 RMSDP=6.98D-07 MaxDP=6.00D-05 DE=-1.77D-06 OVMax= 9.40D-05

 Cycle  12  Pass 1  IDiag  1:
 RMSU=  5.47D-07    CP:  1.00D+00  9.14D-01  8.80D-01
 E= -1650.62965027072     Delta-E=       -0.000000035677 Rises=F Damp=F
 DIIS: error= 5.73D-06 at cycle   4 NSaved=   4.
 NSaved= 4 IEnMin= 4 EnMin= -1650.62965027072     IErMin= 4 ErrMin= 5.73D-06
 ErrMax= 5.73D-06  0.00D+00 EMaxC= 1.00D-01 BMatC= 1.88D-08 BMatP= 6.42D-08
 IDIUse=1 WtCom= 1.00D+00 WtEn= 0.00D+00
 Coeff-Com:  0.435D-03 0.752D-01 0.499D+00 0.426D+00
 Coeff:      0.435D-03 0.752D-01 0.499D+00 0.426D+00
 Gap=     0.150 Goal=   None    Shift=    0.000
 RMSDP=3.17D-07 MaxDP=1.89D-05 DE=-3.57D-08 OVMax= 2.93D-05

 Cycle  13  Pass 1  IDiag  1:
 RMSU=  1.00D-07    CP:  1.00D+00  9.16D-01  8.78D-01  4.54D-01
 E= -1650.62965028608     Delta-E=       -0.000000015354 Rises=F Damp=F
 DIIS: error= 1.23D-06 at cycle   5 NSaved=   5.
 NSaved= 5 IEnMin= 5 EnMin= -1650.62965028608     IErMin= 5 ErrMin= 1.23D-06
 ErrMax= 1.23D-06  0.00D+00 EMaxC= 1.00D-01 BMatC= 7.56D-10 BMatP= 1.88D-08
 IDIUse=1 WtCom= 1.00D+00 WtEn= 0.00D+00
 Coeff-Com: -0.243D-02 0.415D-01 0.283D+00 0.268D+00 0.410D+00
 Coeff:     -0.243D-02 0.415D-01 0.283D+00 0.268D+00 0.410D+00
 Gap=     0.150 Goal=   None    Shift=    0.000
 RMSDP=5.91D-08 MaxDP=3.84D-06 DE=-1.54D-08 OVMax= 7.76D-06

 Cycle  14  Pass 1  IDiag  1:
 RMSU=  3.49D-08    CP:  1.00D+00  9.16D-01  8.82D-01  4.76D-01  5.53D-01
 E= -1650.62965028672     Delta-E=       -0.000000000643 Rises=F Damp=F
 DIIS: error= 1.93D-07 at cycle   6 NSaved=   6.
 NSaved= 6 IEnMin= 6 EnMin= -1650.62965028672     IErMin= 6 ErrMin= 1.93D-07
 ErrMax= 1.93D-07  0.00D+00 EMaxC= 1.00D-01 BMatC= 2.74D-11 BMatP= 7.56D-10
 IDIUse=1 WtCom= 1.00D+00 WtEn= 0.00D+00
 Coeff-Com: -0.133D-02 0.170D-01 0.116D+00 0.115D+00 0.220D+00 0.534D+00
 Coeff:     -0.133D-02 0.170D-01 0.116D+00 0.115D+00 0.220D+00 0.534D+00
 Gap=     0.150 Goal=   None    Shift=    0.000
 RMSDP=1.44D-08 MaxDP=6.38D-07 DE=-6.43D-10 OVMax= 1.55D-06

 Cycle  15  Pass 1  IDiag  1:
 RMSU=  1.17D-08    CP:  1.00D+00  9.16D-01  8.81D-01  4.73D-01  5.75D-01
                    CP:  7.97D-01
 E= -1650.62965028674     Delta-E=       -0.000000000022 Rises=F Damp=F
 DIIS: error= 7.09D-08 at cycle   7 NSaved=   7.
 NSaved= 7 IEnMin= 7 EnMin= -1650.62965028674     IErMin= 7 ErrMin= 7.09D-08
 ErrMax= 7.09D-08  0.00D+00 EMaxC= 1.00D-01 BMatC= 2.82D-12 BMatP= 2.74D-11
 IDIUse=1 WtCom= 1.00D+00 WtEn= 0.00D+00
 Coeff-Com: -0.397D-03 0.394D-02 0.265D-01 0.286D-01 0.621D-01 0.281D+00
 Coeff-Com:  0.599D+00
 Coeff:     -0.397D-03 0.394D-02 0.265D-01 0.286D-01 0.621D-01 0.281D+00
 Coeff:      0.599D+00
 Gap=     0.150 Goal=   None    Shift=    0.000
 RMSDP=5.55D-09 MaxDP=3.08D-07 DE=-2.23D-11 OVMax= 5.16D-07

 SCF Done:  E(RB3LYP) =  -1650.62965029     A.U. after   15 cycles
            NFock= 15  Conv=0.56D-08     -V/T= 2.0077
 KE= 1.638077549015D+03 PE=-8.740333593098D+03 EE= 3.015265744134D+03
 Leave Link  502 at Sun Mar 22 21:52:11 2020, MaxMem= 13421772800 cpu:             731.2 elap:              36.7
 (Enter /apps/gaussian/g16-c01-avx/g16/l601.exe)
 Copying SCF densities to generalized density rwf, IOpCl= 0 IROHF=0.

 **********************************************************************

            Population analysis using the SCF Density.

 **********************************************************************

 Orbital symmetries:
       Occupied  (A) (A) (A) (A) (A) (A) (A) (A) (A) (A) (A) (A)
                 (A) (A) (A) (A) (A) (A) (A) (A) (A) (A) (A) (A)
                 (A) (A) (A) (A) (A) (A) (A) (A) (A) (A) (A) (A)
                 (A) (A) (A) (A) (A) (A) (A) (A) (A) (A) (A) (A)
                 (A) (A) (A) (A) (A) (A) (A) (A) (A) (A) (A) (A)
                 (A) (A) (A) (A) (A) (A) (A) (A) (A) (A) (A) (A)
                 (A) (A) (A) (A) (A) (A) (A) (A) (A) (A) (A) (A)
                 (A) (A) (A) (A) (A) (A) (A) (A) (A) (A) (A) (A)
                 (A) (A) (A) (A) (A) (A) (A)
       Virtual   (A) (A) (A) (A) (A) (A) (A) (A) (A) (A) (A) (A)
                 (A) (A) (A) (A) (A) (A) (A) (A) (A) (A) (A) (A)
                 (A) (A) (A) (A) (A) (A) (A) (A) (A) (A) (A) (A)
                 (A) (A) (A) (A) (A) (A) (A) (A) (A) (A) (A) (A)
                 (A) (A) (A) (A) (A) (A) (A) (A) (A) (A) (A) (A)
                 (A) (A) (A) (A) (A) (A) (A) (A) (A) (A) (A) (A)
                 (A) (A) (A) (A) (A) (A) (A) (A) (A) (A) (A) (A)
                 (A) (A) (A) (A) (A) (A) (A) (A) (A) (A) (A) (A)
                 (A) (A) (A) (A) (A) (A) (A) (A) (A) (A) (A) (A)
                 (A) (A) (A) (A) (A) (A) (A) (A) (A) (A) (A) (A)
                 (A) (A) (A) (A) (A) (A) (A) (A) (A) (A) (A) (A)
                 (A) (A) (A) (A) (A) (A) (A) (A) (A) (A) (A) (A)
                 (A) (A) (A) (A) (A) (A) (A) (A) (A) (A) (A) (A)
                 (A) (A) (A) (A) (A) (A) (A) (A) (A) (A) (A) (A)
                 (A) (A) (A) (A) (A) (A) (A) (A) (A) (A) (A) (A)
                 (A) (A) (A) (A) (A) (A) (A) (A) (A) (A) (A) (A)
                 (A) (A) (A) (A) (A) (A) (A) (A) (A) (A) (A) (A)
                 (A) (A) (A) (A) (A) (A) (A) (A) (A) (A) (A) (A)
                 (A) (A) (A) (A) (A) (A) (A) (A) (A) (A) (A) (A)
                 (A) (A) (A) (A) (A) (A) (A) (A) (A) (A) (A) (A)
                 (A) (A) (A) (A) (A) (A) (A) (A) (A) (A) (A) (A)
                 (A) (A) (A) (A) (A) (A) (A) (A) (A) (A) (A) (A)
                 (A) (A) (A) (A) (A) (A) (A) (A) (A) (A) (A) (A)
                 (A) (A) (A) (A) (A) (A) (A) (A) (A) (A) (A) (A)
                 (A) (A) (A) (A) (A) (A) (A) (A) (A) (A) (A) (A)
                 (A) (A) (A) (A) (A) (A) (A) (A) (A) (A) (A) (A)
                 (A) (A) (A) (A) (A) (A) (A) (A) (A) (A) (A) (A)
                 (A) (A) (A) (A) (A) (A) (A) (A) (A) (A) (A) (A)
                 (A) (A) (A)
 The electronic state is 1-A.
 Alpha  occ. eigenvalues --  -88.91476 -19.16636 -19.16176 -19.12457 -19.12006
 Alpha  occ. eigenvalues --  -19.11402 -14.39684 -14.38964 -14.38508 -14.32818
 Alpha  occ. eigenvalues --  -14.30471 -14.30173 -10.29755 -10.29584 -10.29547
 Alpha  occ. eigenvalues --  -10.27312 -10.27032 -10.25575 -10.25567 -10.25544
 Alpha  occ. eigenvalues --  -10.23951 -10.23099 -10.21989 -10.21140 -10.19826
 Alpha  occ. eigenvalues --  -10.19371  -7.97879  -5.94404  -5.93949  -5.93329
 Alpha  occ. eigenvalues --   -1.05312  -1.04216  -1.03320  -1.02981  -1.02620
 Alpha  occ. eigenvalues --   -1.00664  -0.95204  -0.94012  -0.88690  -0.87438
 Alpha  occ. eigenvalues --   -0.86117  -0.84791  -0.78973  -0.77534  -0.76133
 Alpha  occ. eigenvalues --   -0.72894  -0.70978  -0.67942  -0.66818  -0.65759
 Alpha  occ. eigenvalues --   -0.62741  -0.61652  -0.61609  -0.59177  -0.58189
 Alpha  occ. eigenvalues --   -0.56945  -0.56673  -0.54764  -0.53587  -0.52919
 Alpha  occ. eigenvalues --   -0.51194  -0.50697  -0.50309  -0.48669  -0.47588
 Alpha  occ. eigenvalues --   -0.47498  -0.47048  -0.46970  -0.46159  -0.45515
 Alpha  occ. eigenvalues --   -0.45187  -0.44416  -0.44185  -0.43873  -0.43388
 Alpha  occ. eigenvalues --   -0.42989  -0.41999  -0.41906  -0.41282  -0.40685
 Alpha  occ. eigenvalues --   -0.39796  -0.39201  -0.39021  -0.38234  -0.37418
 Alpha  occ. eigenvalues --   -0.36749  -0.36334  -0.35533  -0.34631  -0.33254
 Alpha  occ. eigenvalues --   -0.29383  -0.29149  -0.28853  -0.27345  -0.27217
 Alpha  occ. eigenvalues --   -0.26385  -0.25851  -0.25258  -0.25057  -0.24211
 Alpha  occ. eigenvalues --   -0.23009  -0.22505  -0.20457
 Alpha virt. eigenvalues --   -0.05503  -0.01372   0.00367   0.00743   0.00974
 Alpha virt. eigenvalues --    0.01741   0.02088   0.03365   0.05125   0.06443
 Alpha virt. eigenvalues --    0.07473   0.08238   0.08949   0.09376   0.10012
 Alpha virt. eigenvalues --    0.10798   0.11209   0.11501   0.11943   0.12625
 Alpha virt. eigenvalues --    0.13771   0.13951   0.14060   0.14148   0.15062
 Alpha virt. eigenvalues --    0.15301   0.16264   0.16896   0.17443   0.17841
 Alpha virt. eigenvalues --    0.17972   0.18589   0.19786   0.19986   0.20784
 Alpha virt. eigenvalues --    0.22959   0.23169   0.23995   0.24806   0.25117
 Alpha virt. eigenvalues --    0.25254   0.26178   0.26596   0.27437   0.27766
 Alpha virt. eigenvalues --    0.28276   0.29454   0.31556   0.32520   0.32936
 Alpha virt. eigenvalues --    0.33477   0.35465   0.35829   0.37846   0.38368
 Alpha virt. eigenvalues --    0.40636   0.42087   0.43840   0.46663   0.49792
 Alpha virt. eigenvalues --    0.50286   0.51120   0.51233   0.51799   0.52715
 Alpha virt. eigenvalues --    0.52874   0.53184   0.53735   0.54545   0.54917
 Alpha virt. eigenvalues --    0.55144   0.56306   0.56841   0.57028   0.58163
 Alpha virt. eigenvalues --    0.58695   0.59197   0.60076   0.61457   0.61566
 Alpha virt. eigenvalues --    0.61651   0.62198   0.62859   0.63034   0.63357
 Alpha virt. eigenvalues --    0.63680   0.65529   0.65784   0.66523   0.67892
 Alpha virt. eigenvalues --    0.68278   0.68666   0.69193   0.69798   0.71132
 Alpha virt. eigenvalues --    0.71175   0.71878   0.72907   0.73455   0.73686
 Alpha virt. eigenvalues --    0.74579   0.75446   0.75992   0.76476   0.78551
 Alpha virt. eigenvalues --    0.79165   0.79264   0.79772   0.80724   0.80979
 Alpha virt. eigenvalues --    0.81329   0.81948   0.82430   0.82954   0.83710
 Alpha virt. eigenvalues --    0.84048   0.84261   0.85407   0.85992   0.86347
 Alpha virt. eigenvalues --    0.86615   0.87038   0.87265   0.87417   0.88312
 Alpha virt. eigenvalues --    0.88791   0.88984   0.89729   0.90072   0.90805
 Alpha virt. eigenvalues --    0.91011   0.91432   0.91704   0.92151   0.92305
 Alpha virt. eigenvalues --    0.93172   0.93992   0.94109   0.94402   0.95170
 Alpha virt. eigenvalues --    0.96031   0.96455   0.97821   0.98995   1.00054
 Alpha virt. eigenvalues --    1.01777   1.02359   1.02647   1.03396   1.04300
 Alpha virt. eigenvalues --    1.05460   1.06306   1.08210   1.09218   1.09649
 Alpha virt. eigenvalues --    1.09713   1.10976   1.11665   1.12400   1.12882
 Alpha virt. eigenvalues --    1.14527   1.15417   1.16282   1.17305   1.19481
 Alpha virt. eigenvalues --    1.20401   1.20688   1.21426   1.24084   1.24962
 Alpha virt. eigenvalues --    1.28703   1.29187   1.32296   1.33483   1.35607
 Alpha virt. eigenvalues --    1.36551   1.37035   1.38000   1.38370   1.39349
 Alpha virt. eigenvalues --    1.41753   1.42365   1.43746   1.44166   1.44389
 Alpha virt. eigenvalues --    1.45946   1.48452   1.50531   1.51050   1.51437
 Alpha virt. eigenvalues --    1.54046   1.55120   1.56953   1.58105   1.59188
 Alpha virt. eigenvalues --    1.59526   1.60937   1.61831   1.63059   1.64415
 Alpha virt. eigenvalues --    1.66876   1.67331   1.67660   1.70637   1.70745
 Alpha virt. eigenvalues --    1.71365   1.75228   1.76451   1.77183   1.78514
 Alpha virt. eigenvalues --    1.78615   1.79594   1.81182   1.81425   1.82154
 Alpha virt. eigenvalues --    1.83387   1.84177   1.84282   1.85071   1.86141
 Alpha virt. eigenvalues --    1.86672   1.88001   1.88862   1.89713   1.90240
 Alpha virt. eigenvalues --    1.91537   1.91815   1.93703   1.95023   1.95291
 Alpha virt. eigenvalues --    1.97311   1.97633   1.98923   2.00080   2.00902
 Alpha virt. eigenvalues --    2.02345   2.03434   2.03660   2.06292   2.06502
 Alpha virt. eigenvalues --    2.07654   2.07848   2.08296   2.09379   2.10029
 Alpha virt. eigenvalues --    2.11910   2.12103   2.13236   2.14012   2.14249
 Alpha virt. eigenvalues --    2.16984   2.19155   2.20319   2.20557   2.20985
 Alpha virt. eigenvalues --    2.23160   2.25154   2.25903   2.27596   2.27951
 Alpha virt. eigenvalues --    2.28502   2.30022   2.32423   2.32514   2.33365
 Alpha virt. eigenvalues --    2.34219   2.35348   2.35577   2.37164   2.37269
 Alpha virt. eigenvalues --    2.38598   2.40654   2.41645   2.42299   2.44717
 Alpha virt. eigenvalues --    2.47270   2.48023   2.52263   2.53028   2.53438
 Alpha virt. eigenvalues --    2.54762   2.55575   2.58317   2.60250   2.61033
 Alpha virt. eigenvalues --    2.61227   2.62124   2.63052   2.65103   2.65755
 Alpha virt. eigenvalues --    2.66859   2.70434   2.71579   2.72192   2.75273
 Alpha virt. eigenvalues --    2.76408   2.77616   2.79559   2.81926   2.82164
 Alpha virt. eigenvalues --    2.83654   2.87827   2.92323   2.92339   2.93215
 Alpha virt. eigenvalues --    2.97226   2.99644   3.01562   3.07945   3.08723
 Alpha virt. eigenvalues --    3.13350   3.14306   3.19628   3.73971   3.75316
 Alpha virt. eigenvalues --    3.78220   3.82541   3.87198   3.91983   3.95902
 Alpha virt. eigenvalues --    3.97426   4.05670   4.05818   4.09692   4.11093
 Alpha virt. eigenvalues --    4.12713   4.21557   4.22175   4.22968   4.24534
 Alpha virt. eigenvalues --    4.25025   4.30910   4.33989   4.40996   4.52369
 Alpha virt. eigenvalues --    4.53558   4.53733   4.59188   4.69065
          Condensed to atoms (all electrons):
               1          2          3          4          5          6
     1  N    7.035353   0.217769  -0.039069   0.003487  -0.037308   0.000688
     2  C    0.217769   5.089713   0.297372  -0.072108   0.346228  -0.031531
     3  C   -0.039069   0.297372   4.727180   0.487915  -0.021310  -0.012879
     4  O    0.003487  -0.072108   0.487915   8.034858  -0.000775  -0.001578
     5  C   -0.037308   0.346228  -0.021310  -0.000775   5.145433   0.380961
     6  C    0.000688  -0.031531  -0.012879  -0.001578   0.380961   4.613885
     7  C    0.000128   0.001689   0.000272  -0.000042  -0.083074   0.539158
     8  N   -0.000758  -0.004151   0.013555  -0.001970  -0.070927   0.447722
     9  C    0.000043   0.000052   0.000000   0.000071   0.007892  -0.076043
    10  N   -0.000006  -0.000094   0.000019  -0.000001   0.004797  -0.044500
    11  H    0.332604  -0.028840  -0.000669   0.000032   0.003832   0.000072
    12  H    0.326772  -0.027794   0.001352  -0.000062  -0.005877   0.004306
    13  H   -0.050295   0.357411  -0.049969   0.003746  -0.034611   0.005733
    14  H    0.015824  -0.103059   0.333347  -0.044907   0.002764   0.000496
    15  H   -0.001188  -0.038668   0.005283  -0.000031   0.358334  -0.044536
    16  H    0.004604  -0.037368  -0.002328   0.006627   0.358539  -0.030812
    17  H   -0.000036   0.000052  -0.000006   0.000000  -0.002154  -0.029296
    18  H    0.000000  -0.000002  -0.000005   0.000002  -0.000177   0.004884
    19  H   -0.000000   0.000003  -0.000001   0.000000  -0.000031   0.006909
    20  N    0.000000  -0.000000   0.000000  -0.000000   0.000000   0.000000
    21  C    0.000000  -0.000000   0.000000  -0.000000  -0.000000  -0.000000
    22  C   -0.000000   0.000000  -0.000000   0.000000   0.000000   0.000000
    23  O    0.000000   0.000000   0.000000   0.000000   0.000000   0.000000
    24  H   -0.000000   0.000000  -0.000000   0.000000  -0.000000   0.000000
    25  H    0.000000  -0.000000   0.000000  -0.000000   0.000000  -0.000000
    26  H   -0.000000   0.000000  -0.000000   0.000000  -0.000000   0.000000
    27  H    0.000000   0.000000  -0.000000   0.000000  -0.000000   0.000000
    28  N    0.000000   0.000000  -0.000000   0.000000   0.000000   0.000000
    29  C    0.000000   0.000000   0.000000   0.000000  -0.000000  -0.000000
    30  C   -0.000000   0.000000  -0.000000   0.000000  -0.000000   0.000000
    31  O    0.000000   0.000000   0.000000   0.000000  -0.000000  -0.000000
    32  C    0.000000   0.000000   0.000000   0.000000   0.000000   0.000000
    33  O    0.000000   0.000000   0.000000   0.000000   0.000000  -0.000000
    34  H    0.000000   0.000000   0.000000   0.000000  -0.000000  -0.000000
    35  H    0.000000   0.000000   0.000000   0.000000   0.000000  -0.000000
    36  H    0.000000   0.000000   0.000000   0.000000   0.000000   0.000000
    37  H    0.000000  -0.000000   0.000000  -0.000000  -0.000000  -0.000000
    38  H    0.000000   0.000000  -0.000000   0.000000  -0.000000  -0.000000
    39  N   -0.000000  -0.000000   0.000000   0.000000  -0.000000  -0.000000
    40  C    0.000000   0.000000  -0.000000  -0.000000   0.000000  -0.000000
    41  C   -0.000000  -0.000000   0.000000   0.000000   0.000000   0.000000
    42  O   -0.000000  -0.000000   0.000000  -0.000000   0.000000   0.000000
    43  C   -0.000000   0.000000  -0.000000  -0.000000   0.000000  -0.000001
    44  S    0.000000  -0.000000   0.000000  -0.000000   0.000000  -0.000074
    45  H   -0.000000  -0.000000  -0.000000   0.000000   0.000000  -0.000000
    46  H    0.000000  -0.000000  -0.000000   0.000000   0.000000   0.000000
    47  H    0.000000   0.000000   0.000000  -0.000000  -0.000000  -0.000006
    48  H   -0.000000   0.000000  -0.000000   0.000000   0.000000  -0.000000
    49  H   -0.000000  -0.000000  -0.000000   0.000000  -0.000000   0.000000
    50  H   -0.000000   0.000000   0.000000   0.000000  -0.000000   0.000000
               7          8          9         10         11         12
     1  N    0.000128  -0.000758   0.000043  -0.000006   0.332604   0.326772
     2  C    0.001689  -0.004151   0.000052  -0.000094  -0.028840  -0.027794
     3  C    0.000272   0.013555   0.000000   0.000019  -0.000669   0.001352
     4  O   -0.000042  -0.001970   0.000071  -0.000001   0.000032  -0.000062
     5  C   -0.083074  -0.070927   0.007892   0.004797   0.003832  -0.005877
     6  C    0.539158   0.447722  -0.076043  -0.044500   0.000072   0.004306
     7  C    5.125785  -0.089299  -0.125867   0.343839  -0.000001   0.001151
     8  N   -0.089299   6.796862   0.506601  -0.088130  -0.000004   0.000050
     9  C   -0.125867   0.506601   4.743508   0.370208  -0.000000  -0.000046
    10  N    0.343839  -0.088130   0.370208   6.784553   0.000000  -0.000020
    11  H   -0.000001  -0.000004  -0.000000   0.000000   0.405751  -0.028393
    12  H    0.001151   0.000050  -0.000046  -0.000020  -0.028393   0.409151
    13  H   -0.000170   0.000087   0.000011   0.000001  -0.001006   0.003592
    14  H   -0.000053   0.000223   0.000097   0.000001   0.001690  -0.000272
    15  H   -0.004350   0.004373  -0.000248   0.000032   0.000076   0.002645
    16  H    0.001297  -0.002099   0.000258  -0.000035  -0.000145   0.000136
    17  H    0.347400   0.007238   0.005218  -0.047077   0.000000   0.000067
    18  H    0.004358  -0.038286   0.379849  -0.057998  -0.000000  -0.000000
    19  H   -0.029289   0.007284  -0.024732   0.291129   0.000000  -0.000001
    20  N   -0.000000  -0.000000   0.000000  -0.000000   0.000000  -0.000000
    21  C    0.000000   0.000000   0.000000   0.000000  -0.000000   0.000000
    22  C   -0.000000  -0.000000   0.000000   0.000000   0.000000  -0.000000
    23  O   -0.000000   0.000000   0.000000  -0.000000   0.000000   0.000000
    24  H   -0.000000  -0.000000   0.000000   0.000000  -0.000000   0.000000
    25  H   -0.000000  -0.000000   0.000000   0.000000   0.000000   0.000000
    26  H   -0.000000   0.000000  -0.000000  -0.000000   0.000000   0.000000
    27  H   -0.000000  -0.000000  -0.000000   0.000000   0.000000   0.000000
    28  N    0.000000  -0.000000   0.000000   0.000000   0.000000   0.000000
    29  C    0.000000   0.000000   0.000000  -0.000000   0.000000  -0.000000
    30  C   -0.000000   0.000000   0.000000  -0.000000   0.000000  -0.000000
    31  O    0.000000   0.000000   0.000000  -0.000000   0.000000   0.000000
    32  C   -0.000000  -0.000000  -0.000000   0.000000   0.000000   0.000000
    33  O    0.000000   0.000000   0.000000  -0.000000   0.000000   0.000000
    34  H    0.000000   0.000000   0.000000  -0.000000   0.000000  -0.000000
    35  H    0.000000   0.000000   0.000000  -0.000000   0.000000   0.000000
    36  H   -0.000000  -0.000000  -0.000000   0.000000   0.000000   0.000000
    37  H    0.000000   0.000000   0.000000  -0.000000   0.000000  -0.000000
    38  H   -0.000000   0.000000   0.000000   0.000000   0.000000   0.000000
    39  N    0.000000   0.000000  -0.000000  -0.000000  -0.000000   0.000000
    40  C   -0.000000  -0.000000   0.000053   0.000004   0.000000  -0.000000
    41  C    0.000000  -0.000000   0.000000  -0.000000  -0.000000   0.000000
    42  O   -0.000000  -0.000000   0.000000  -0.000000  -0.000000   0.000000
    43  C    0.000009   0.000008  -0.000246  -0.000428  -0.000000   0.000000
    44  S    0.000256   0.000166  -0.001766  -0.003951  -0.000000   0.000000
    45  H    0.000000  -0.000000  -0.000002  -0.000000   0.000000   0.000000
    46  H    0.000000  -0.000000  -0.000000  -0.000000  -0.000000   0.000000
    47  H   -0.000048  -0.000017   0.001130   0.001395   0.000000  -0.000000
    48  H   -0.000000  -0.000002  -0.000216  -0.000019  -0.000000  -0.000000
    49  H    0.000000  -0.000000   0.000002  -0.000033  -0.000000   0.000000
    50  H   -0.000000   0.000000  -0.000000   0.000000  -0.000000   0.000000
              13         14         15         16         17         18
     1  N   -0.050295   0.015824  -0.001188   0.004604  -0.000036   0.000000
     2  C    0.357411  -0.103059  -0.038668  -0.037368   0.000052  -0.000002
     3  C   -0.049969   0.333347   0.005283  -0.002328  -0.000006  -0.000005
     4  O    0.003746  -0.044907  -0.000031   0.006627   0.000000   0.000002
     5  C   -0.034611   0.002764   0.358334   0.358539  -0.002154  -0.000177
     6  C    0.005733   0.000496  -0.044536  -0.030812  -0.029296   0.004884
     7  C   -0.000170  -0.000053  -0.004350   0.001297   0.347400   0.004358
     8  N    0.000087   0.000223   0.004373  -0.002099   0.007238  -0.038286
     9  C    0.000011   0.000097  -0.000248   0.000258   0.005218   0.379849
    10  N    0.000001   0.000001   0.000032  -0.000035  -0.047077  -0.057998
    11  H   -0.001006   0.001690   0.000076  -0.000145   0.000000  -0.000000
    12  H    0.003592  -0.000272   0.002645   0.000136   0.000067  -0.000000
    13  H    0.613747   0.006154  -0.006625  -0.003399  -0.000000  -0.000000
    14  H    0.006154   0.664596  -0.000196   0.000265  -0.000001  -0.000001
    15  H   -0.006625  -0.000196   0.599757  -0.022793   0.003645   0.000004
    16  H   -0.003399   0.000265  -0.022793   0.544193  -0.000121   0.000000
    17  H   -0.000000  -0.000001   0.003645  -0.000121   0.574106  -0.000071
    18  H   -0.000000  -0.000001   0.000004   0.000000  -0.000071   0.546996
    19  H   -0.000000  -0.000000  -0.000006   0.000001  -0.000236  -0.000254
    20  N    0.000000   0.000000   0.000000  -0.000000  -0.000000  -0.000000
    21  C   -0.000000   0.000000  -0.000000   0.000000   0.000000  -0.000000
    22  C   -0.000000  -0.000000   0.000000  -0.000000  -0.000000  -0.000000
    23  O    0.000000  -0.000000   0.000000   0.000000   0.000000  -0.000000
    24  H   -0.000000  -0.000000   0.000000   0.000000   0.000000  -0.000000
    25  H    0.000000   0.000000   0.000000  -0.000000  -0.000000  -0.000000
    26  H   -0.000000  -0.000000  -0.000000   0.000000   0.000000   0.000000
    27  H   -0.000000  -0.000000   0.000000   0.000000   0.000000   0.000000
    28  N    0.000000   0.000000   0.000000  -0.000000  -0.000000  -0.000000
    29  C    0.000000   0.000000   0.000000  -0.000000   0.000000   0.000000
    30  C   -0.000000  -0.000000   0.000000  -0.000000   0.000000   0.000000
    31  O    0.000000   0.000000  -0.000000   0.000000  -0.000000   0.000000
    32  C    0.000000  -0.000000   0.000000   0.000000  -0.000000  -0.000000
    33  O    0.000000   0.000000   0.000000   0.000000   0.000000   0.000000
    34  H    0.000000   0.000000   0.000000  -0.000000   0.000000  -0.000000
    35  H    0.000000   0.000000   0.000000   0.000000   0.000000   0.000000
    36  H    0.000000   0.000000   0.000000   0.000000  -0.000000  -0.000000
    37  H   -0.000000  -0.000000   0.000000  -0.000000  -0.000000  -0.000000
    38  H   -0.000000  -0.000000   0.000000   0.000000   0.000000   0.000000
    39  N    0.000000  -0.000000  -0.000000   0.000000   0.000000  -0.000001
    40  C   -0.000000   0.000000   0.000000  -0.000000   0.000000   0.000053
    41  C    0.000000  -0.000000   0.000000   0.000000   0.000000  -0.000001
    42  O    0.000000  -0.000000  -0.000000   0.000000   0.000000  -0.000000
    43  C   -0.000000  -0.000000   0.000000  -0.000000   0.000000   0.000967
    44  S    0.000000   0.000000  -0.000000   0.000000   0.000000  -0.000947
    45  H    0.000000   0.000000  -0.000000   0.000000   0.000000   0.000001
    46  H    0.000000   0.000000  -0.000000   0.000000  -0.000000  -0.000000
    47  H   -0.000000   0.000000   0.000000  -0.000000  -0.000000   0.000237
    48  H    0.000000  -0.000000   0.000000  -0.000000   0.000000   0.000832
    49  H    0.000000  -0.000000   0.000000   0.000000   0.000000   0.000019
    50  H   -0.000000  -0.000000  -0.000000   0.000000  -0.000000   0.000000
              19         20         21         22         23         24
     1  N   -0.000000   0.000000   0.000000  -0.000000   0.000000  -0.000000
     2  C    0.000003  -0.000000  -0.000000   0.000000   0.000000   0.000000
     3  C   -0.000001   0.000000   0.000000  -0.000000   0.000000  -0.000000
     4  O    0.000000  -0.000000  -0.000000   0.000000   0.000000   0.000000
     5  C   -0.000031   0.000000  -0.000000   0.000000   0.000000  -0.000000
     6  C    0.006909   0.000000  -0.000000   0.000000   0.000000   0.000000
     7  C   -0.029289  -0.000000   0.000000  -0.000000  -0.000000  -0.000000
     8  N    0.007284  -0.000000   0.000000  -0.000000   0.000000  -0.000000
     9  C   -0.024732   0.000000   0.000000   0.000000   0.000000   0.000000
    10  N    0.291129  -0.000000   0.000000   0.000000  -0.000000   0.000000
    11  H    0.000000   0.000000  -0.000000   0.000000   0.000000  -0.000000
    12  H   -0.000001  -0.000000   0.000000  -0.000000   0.000000   0.000000
    13  H   -0.000000   0.000000  -0.000000  -0.000000   0.000000  -0.000000
    14  H   -0.000000   0.000000   0.000000  -0.000000  -0.000000  -0.000000
    15  H   -0.000006   0.000000  -0.000000   0.000000   0.000000   0.000000
    16  H    0.000001  -0.000000   0.000000  -0.000000   0.000000   0.000000
    17  H   -0.000236  -0.000000   0.000000  -0.000000   0.000000   0.000000
    18  H   -0.000254  -0.000000  -0.000000  -0.000000  -0.000000  -0.000000
    19  H    0.402953   0.000000   0.000000  -0.000000   0.000000  -0.000000
    20  N    0.000000   7.056568   0.219899  -0.037856   0.003050   0.330480
    21  C    0.000000   0.219899   5.103323   0.367777  -0.083325  -0.020008
    22  C   -0.000000  -0.037856   0.367777   4.349785   0.562364   0.002071
    23  O    0.000000   0.003050  -0.083325   0.562364   8.094878  -0.000079
    24  H   -0.000000   0.330480  -0.020008   0.002071  -0.000079   0.385401
    25  H    0.000000  -0.057468   0.366827  -0.031989   0.001765   0.001302
    26  H   -0.000000  -0.038300   0.371412  -0.017735   0.000825  -0.003939
    27  H   -0.000000   0.315932  -0.032481  -0.007224  -0.000043  -0.024218
    28  N   -0.000000  -0.004394  -0.123653   0.254575  -0.086704   0.000231
    29  C    0.000000   0.000426   0.006379  -0.021698   0.004249  -0.000003
    30  C    0.000000  -0.000012  -0.000287  -0.000969   0.001947   0.000001
    31  O    0.000000   0.000000  -0.000000  -0.000080  -0.000020  -0.000000
    32  C   -0.000000  -0.000055  -0.000056   0.005000   0.000404   0.000001
    33  O    0.000000   0.000004  -0.000003   0.000052  -0.000002  -0.000000
    34  H    0.000000  -0.000041   0.000493   0.000936   0.009307   0.000001
    35  H    0.000000  -0.000011  -0.000004  -0.000119  -0.000011   0.000000
    36  H   -0.000000  -0.000000   0.000004  -0.000015  -0.000000   0.000000
    37  H    0.000000   0.016432  -0.005311  -0.020938   0.003367  -0.000380
    38  H   -0.000000  -0.000148   0.000058   0.000130   0.000005   0.000004
    39  N    0.000000  -0.000223   0.000008   0.002749  -0.000704  -0.000001
    40  C    0.000012   0.000001   0.000003  -0.000108  -0.000026  -0.000000
    41  C   -0.000001   0.000000  -0.000000  -0.000024   0.000015  -0.000000
    42  O    0.000000   0.000000   0.000000   0.000106   0.000012   0.000000
    43  C   -0.000072  -0.000002  -0.000002  -0.000012   0.000000  -0.000000
    44  S    0.010182   0.000010   0.000004  -0.000037   0.000001   0.000005
    45  H    0.000003   0.000000  -0.000000   0.000006  -0.000000   0.000000
    46  H    0.000000   0.000000   0.000000   0.000001  -0.000000   0.000000
    47  H   -0.000206  -0.000000  -0.000000  -0.000000   0.000000   0.000000
    48  H    0.000028   0.000001  -0.000001   0.000037  -0.000000  -0.000000
    49  H   -0.000113   0.000000  -0.000000   0.000000  -0.000000  -0.000000
    50  H   -0.000000   0.002186  -0.000457  -0.000554  -0.000797   0.000004
              25         26         27         28         29         30
     1  N    0.000000  -0.000000   0.000000   0.000000   0.000000  -0.000000
     2  C   -0.000000   0.000000   0.000000   0.000000   0.000000   0.000000
     3  C    0.000000  -0.000000  -0.000000  -0.000000   0.000000  -0.000000
     4  O   -0.000000   0.000000   0.000000   0.000000   0.000000   0.000000
     5  C    0.000000  -0.000000  -0.000000   0.000000  -0.000000  -0.000000
     6  C   -0.000000   0.000000   0.000000   0.000000  -0.000000   0.000000
     7  C   -0.000000  -0.000000  -0.000000   0.000000   0.000000  -0.000000
     8  N   -0.000000   0.000000  -0.000000  -0.000000   0.000000   0.000000
     9  C    0.000000  -0.000000  -0.000000   0.000000   0.000000   0.000000
    10  N    0.000000  -0.000000   0.000000   0.000000  -0.000000  -0.000000
    11  H    0.000000   0.000000   0.000000   0.000000   0.000000   0.000000
    12  H    0.000000   0.000000   0.000000   0.000000  -0.000000  -0.000000
    13  H    0.000000  -0.000000  -0.000000   0.000000   0.000000  -0.000000
    14  H    0.000000  -0.000000  -0.000000   0.000000   0.000000  -0.000000
    15  H    0.000000  -0.000000   0.000000   0.000000   0.000000   0.000000
    16  H   -0.000000   0.000000   0.000000  -0.000000  -0.000000  -0.000000
[...]
    40  C   -0.000000  -0.000001  -0.000000   0.000393   0.007160  -0.030712
    41  C    0.000000   0.000000   0.000000  -0.000039   0.000180   0.004358
    42  O   -0.000000   0.000000   0.000000   0.000001  -0.000348   0.005032
    43  C   -0.000000   0.000001   0.000000  -0.000069  -0.000067   0.005511
    44  S    0.000000   0.000001   0.000019  -0.000123  -0.000005  -0.000051
    45  H   -0.000000   0.000000   0.000000  -0.000028  -0.000136  -0.001407
    46  H   -0.000000   0.000000   0.000000   0.000000  -0.000006   0.000967
    47  H   -0.000000   0.000000   0.000000  -0.000000   0.000003   0.000001
    48  H   -0.000000   0.000003   0.000000  -0.000011  -0.000013  -0.000057
    49  H    0.000000  -0.000000  -0.000000   0.000001  -0.000004  -0.000069
    50  H    0.000047  -0.000188  -0.000255   0.021550  -0.005767  -0.020012
              31         32         33         34         35         36
     1  N    0.000000   0.000000   0.000000   0.000000   0.000000   0.000000
     2  C    0.000000   0.000000   0.000000   0.000000   0.000000   0.000000
     3  C    0.000000   0.000000   0.000000   0.000000   0.000000   0.000000
     4  O    0.000000   0.000000   0.000000   0.000000   0.000000   0.000000
     5  C   -0.000000   0.000000   0.000000  -0.000000   0.000000   0.000000
     6  C   -0.000000   0.000000  -0.000000  -0.000000  -0.000000   0.000000
     7  C    0.000000  -0.000000   0.000000   0.000000   0.000000  -0.000000
     8  N    0.000000  -0.000000   0.000000   0.000000   0.000000  -0.000000
     9  C    0.000000  -0.000000   0.000000   0.000000   0.000000  -0.000000
    10  N   -0.000000   0.000000  -0.000000  -0.000000  -0.000000   0.000000
    11  H    0.000000   0.000000   0.000000   0.000000   0.000000   0.000000
    12  H    0.000000   0.000000   0.000000  -0.000000   0.000000   0.000000
    13  H    0.000000   0.000000   0.000000   0.000000   0.000000   0.000000
    14  H    0.000000  -0.000000   0.000000   0.000000   0.000000   0.000000
    15  H   -0.000000   0.000000   0.000000   0.000000   0.000000   0.000000
    16  H    0.000000   0.000000   0.000000  -0.000000   0.000000   0.000000
    17  H   -0.000000  -0.000000   0.000000   0.000000   0.000000  -0.000000
    18  H    0.000000  -0.000000   0.000000  -0.000000   0.000000  -0.000000
    19  H    0.000000  -0.000000   0.000000   0.000000   0.000000  -0.000000
    20  N    0.000000  -0.000055   0.000004  -0.000041  -0.000011  -0.000000
    21  C   -0.000000  -0.000056  -0.000003   0.000493  -0.000004   0.000004
    22  C   -0.000080   0.005000   0.000052   0.000936  -0.000119  -0.000015
    23  O   -0.000020   0.000404  -0.000002   0.009307  -0.000011  -0.000000
    24  H   -0.000000   0.000001  -0.000000   0.000001   0.000000   0.000000
    25  H    0.000000   0.000002   0.000000  -0.000026  -0.000001  -0.000000
    26  H   -0.000000   0.000001  -0.000000  -0.000014   0.000000  -0.000000
    27  H   -0.000000  -0.000017  -0.000135  -0.000023   0.000108  -0.000002
    28  N    0.002856  -0.031617  -0.006774  -0.046901  -0.003664   0.004490
    29  C   -0.075079   0.336223  -0.036775   0.358022  -0.048017  -0.028688
    30  C    0.537083  -0.034710   0.007929  -0.026905   0.007688  -0.009116
    31  O    8.143872   0.000810  -0.000876   0.000257   0.000028   0.009097
    32  C    0.000810   4.828516   0.260486  -0.026664   0.365527   0.370811
    33  O   -0.000876   0.260486   8.240493   0.003199  -0.046909  -0.035531
    34  H    0.000257  -0.026664   0.003199   0.508253  -0.001887  -0.001188
    35  H    0.000028   0.365527  -0.046909  -0.001887   0.621252  -0.039657
    36  H    0.009097   0.370811  -0.035531  -0.001188  -0.039657   0.529966
    37  H   -0.000064  -0.003659   0.007304   0.003932  -0.001256   0.000231
    38  H   -0.000271  -0.042750   0.237406   0.000587   0.001447   0.005186
    39  N   -0.096753  -0.001971  -0.000523   0.002359  -0.000198   0.000687
    40  C    0.009391  -0.000204  -0.000027  -0.000055   0.000005  -0.000019
    41  C    0.012123  -0.000012   0.000000   0.000010   0.000000  -0.000003
    42  O   -0.004434   0.000000  -0.000000   0.000037   0.000000   0.000000
    43  C    0.000798   0.000002  -0.000002   0.000000  -0.000000  -0.000000
    44  S   -0.000068  -0.000003  -0.000037  -0.000001   0.000000   0.000000
    45  H    0.004392   0.000068   0.000021  -0.000013   0.000000   0.000001
    46  H   -0.000681   0.000000   0.000000  -0.000001   0.000000   0.000000
    47  H    0.000003   0.000000  -0.000000  -0.000000   0.000000  -0.000000
    48  H   -0.000010   0.000001   0.000000  -0.000001  -0.000000   0.000000
    49  H    0.000002   0.000001  -0.000001  -0.000000  -0.000000   0.000000
    50  H    0.003326   0.000019   0.000198   0.000241  -0.000027  -0.000073
              37         38         39         40         41         42
     1  N    0.000000   0.000000  -0.000000   0.000000  -0.000000  -0.000000
     2  C   -0.000000   0.000000  -0.000000   0.000000  -0.000000  -0.000000
     3  C    0.000000  -0.000000   0.000000  -0.000000   0.000000   0.000000
     4  O   -0.000000   0.000000   0.000000  -0.000000   0.000000  -0.000000
     5  C   -0.000000  -0.000000  -0.000000   0.000000   0.000000   0.000000
     6  C   -0.000000  -0.000000  -0.000000  -0.000000   0.000000   0.000000
     7  C    0.000000  -0.000000   0.000000  -0.000000   0.000000  -0.000000
     8  N    0.000000   0.000000   0.000000  -0.000000  -0.000000  -0.000000
     9  C    0.000000   0.000000  -0.000000   0.000053   0.000000   0.000000
    10  N   -0.000000   0.000000  -0.000000   0.000004  -0.000000  -0.000000
    11  H    0.000000   0.000000  -0.000000   0.000000  -0.000000  -0.000000
    12  H   -0.000000   0.000000   0.000000  -0.000000   0.000000   0.000000
    13  H   -0.000000  -0.000000   0.000000  -0.000000   0.000000   0.000000
    14  H   -0.000000  -0.000000  -0.000000   0.000000  -0.000000  -0.000000
    15  H    0.000000   0.000000  -0.000000   0.000000   0.000000  -0.000000
    16  H   -0.000000   0.000000   0.000000  -0.000000   0.000000   0.000000
    17  H   -0.000000   0.000000   0.000000   0.000000   0.000000   0.000000
    18  H   -0.000000   0.000000  -0.000001   0.000053  -0.000001  -0.000000
    19  H    0.000000  -0.000000   0.000000   0.000012  -0.000001   0.000000
    20  N    0.016432  -0.000148  -0.000223   0.000001   0.000000   0.000000
    21  C   -0.005311   0.000058   0.000008   0.000003  -0.000000   0.000000
    22  C   -0.020938   0.000130   0.002749  -0.000108  -0.000024   0.000106
    23  O    0.003367   0.000005  -0.000704  -0.000026   0.000015   0.000012
    24  H   -0.000380   0.000004  -0.000001  -0.000000  -0.000000   0.000000
    25  H    0.001478  -0.000001  -0.000005  -0.000000   0.000000  -0.000000
    26  H   -0.000247  -0.000001   0.000048  -0.000001   0.000000   0.000000
    27  H    0.011267  -0.000278   0.000025  -0.000000   0.000000   0.000000
    28  N    0.252685   0.003157  -0.003557   0.000393  -0.000039   0.000001
    29  C   -0.028433  -0.003211  -0.109154   0.007160   0.000180  -0.000348
    30  C   -0.001123  -0.004094   0.271700  -0.030712   0.004358   0.005032
    31  O   -0.000064  -0.000271  -0.096753   0.009391   0.012123  -0.004434
    32  C   -0.003659  -0.042750  -0.001971  -0.000204  -0.000012   0.000000
    33  O    0.007304   0.237406  -0.000523  -0.000027   0.000000  -0.000000
    34  H    0.003932   0.000587   0.002359  -0.000055   0.000010   0.000037
    35  H   -0.001256   0.001447  -0.000198   0.000005   0.000000   0.000000
    36  H    0.000231   0.005186   0.000687  -0.000019  -0.000003   0.000000
    37  H    0.450368   0.008767  -0.000001   0.000012  -0.000001  -0.000000
    38  H    0.008767   0.403166   0.004379   0.000067   0.000007   0.000000
    39  N   -0.000001   0.004379   7.136776   0.256327  -0.051411  -0.000230
    40  C    0.000012   0.000067   0.256327   5.170722   0.236892  -0.074929
    41  C   -0.000001   0.000007  -0.051411   0.236892   4.736388   0.520360
    42  O   -0.000000   0.000000  -0.000230  -0.074929   0.520360   7.965835
    43  C    0.000002  -0.000027  -0.041925   0.316139  -0.023837  -0.003180
    44  S    0.000049   0.000643  -0.000952  -0.047558   0.005477  -0.000178
    45  H   -0.000000  -0.000074  -0.050304   0.350483  -0.036023   0.003366
    46  H   -0.000000  -0.000000   0.003290  -0.102937   0.347196  -0.046509
    47  H    0.000000   0.000000   0.003723  -0.039305  -0.001305   0.000087
    48  H   -0.000002  -0.000002  -0.001416  -0.031474  -0.003680   0.003338
    49  H   -0.000001  -0.000009  -0.001536  -0.001815   0.000018   0.000000
    50  H    0.001076   0.000203   0.287954  -0.033179   0.001703  -0.000029
              43         44         45         46         47         48
     1  N   -0.000000   0.000000  -0.000000   0.000000   0.000000  -0.000000
     2  C    0.000000  -0.000000  -0.000000  -0.000000   0.000000   0.000000
     3  C   -0.000000   0.000000  -0.000000  -0.000000   0.000000  -0.000000
     4  O   -0.000000  -0.000000   0.000000   0.000000  -0.000000   0.000000
     5  C    0.000000   0.000000   0.000000   0.000000  -0.000000   0.000000
     6  C   -0.000001  -0.000074  -0.000000   0.000000  -0.000006  -0.000000
     7  C    0.000009   0.000256   0.000000   0.000000  -0.000048  -0.000000
     8  N    0.000008   0.000166  -0.000000  -0.000000  -0.000017  -0.000002
     9  C   -0.000246  -0.001766  -0.000002  -0.000000   0.001130  -0.000216
    10  N   -0.000428  -0.003951  -0.000000  -0.000000   0.001395  -0.000019
    11  H   -0.000000  -0.000000   0.000000  -0.000000   0.000000  -0.000000
    12  H    0.000000   0.000000   0.000000   0.000000  -0.000000  -0.000000
    13  H   -0.000000   0.000000   0.000000   0.000000  -0.000000   0.000000
    14  H   -0.000000   0.000000   0.000000   0.000000   0.000000  -0.000000
    15  H    0.000000  -0.000000  -0.000000  -0.000000   0.000000   0.000000
    16  H   -0.000000   0.000000   0.000000   0.000000  -0.000000  -0.000000
    17  H    0.000000   0.000000   0.000000  -0.000000  -0.000000   0.000000
    18  H    0.000967  -0.000947   0.000001  -0.000000   0.000237   0.000832
    19  H   -0.000072   0.010182   0.000003   0.000000  -0.000206   0.000028
    20  N   -0.000002   0.000010   0.000000   0.000000  -0.000000   0.000001
    21  C   -0.000002   0.000004  -0.000000   0.000000  -0.000000  -0.000001
    22  C   -0.000012  -0.000037   0.000006   0.000001  -0.000000   0.000037
    23  O    0.000000   0.000001  -0.000000  -0.000000   0.000000  -0.000000
    24  H   -0.000000   0.000005   0.000000   0.000000   0.000000  -0.000000
    25  H   -0.000000   0.000000  -0.000000  -0.000000  -0.000000  -0.000000
    26  H    0.000001   0.000001   0.000000   0.000000   0.000000   0.000003
    27  H    0.000000   0.000019   0.000000   0.000000   0.000000   0.000000
    28  N   -0.000069  -0.000123  -0.000028   0.000000  -0.000000  -0.000011
    29  C   -0.000067  -0.000005  -0.000136  -0.000006   0.000003  -0.000013
    30  C    0.005511  -0.000051  -0.001407   0.000967   0.000001  -0.000057
    31  O    0.000798  -0.000068   0.004392  -0.000681   0.000003  -0.000010
    32  C    0.000002  -0.000003   0.000068   0.000000   0.000000   0.000001
    33  O   -0.000002  -0.000037   0.000021   0.000000  -0.000000   0.000000
    34  H    0.000000  -0.000001  -0.000013  -0.000001  -0.000000  -0.000001
    35  H   -0.000000   0.000000   0.000000   0.000000   0.000000  -0.000000
    36  H   -0.000000   0.000000   0.000001   0.000000  -0.000000   0.000000
    37  H    0.000002   0.000049  -0.000000  -0.000000   0.000000  -0.000002
    38  H   -0.000027   0.000643  -0.000074  -0.000000   0.000000  -0.000002
    39  N   -0.041925  -0.000952  -0.050304   0.003290   0.003723  -0.001416
    40  C    0.316139  -0.047558   0.350483  -0.102937  -0.039305  -0.031474
    41  C   -0.023837   0.005477  -0.036023   0.347196  -0.001305  -0.003680
    42  O   -0.003180  -0.000178   0.003366  -0.046509   0.000087   0.003338
    43  C    5.281739   0.255032  -0.046209   0.001362   0.367188   0.360929
    44  S    0.255032  15.744118  -0.015056  -0.000423  -0.055689  -0.040131
    45  H   -0.046209  -0.015056   0.606097   0.007092  -0.002035   0.006927
    46  H    0.001362  -0.000423   0.007092   0.648564   0.001515   0.000596
    47  H    0.367188  -0.055689  -0.002035   0.001515   0.546767  -0.023129
    48  H    0.360929  -0.040131   0.006927   0.000596  -0.023129   0.498759
    49  H   -0.013560   0.246061   0.004727  -0.000001  -0.001452   0.002114
    50  H   -0.002671   0.008761   0.002729  -0.000104   0.000152   0.001231
              49         50
     1  N   -0.000000  -0.000000
     2  C   -0.000000   0.000000
     3  C   -0.000000   0.000000
     4  O    0.000000   0.000000
     5  C   -0.000000  -0.000000
     6  C    0.000000   0.000000
     7  C    0.000000  -0.000000
     8  N   -0.000000   0.000000
     9  C    0.000002  -0.000000
    10  N   -0.000033   0.000000
    11  H   -0.000000  -0.000000
    12  H    0.000000   0.000000
    13  H    0.000000  -0.000000
    14  H   -0.000000  -0.000000
    15  H    0.000000  -0.000000
    16  H    0.000000   0.000000
    17  H    0.000000  -0.000000
    18  H    0.000019   0.000000
    19  H   -0.000113  -0.000000
    20  N    0.000000   0.002186
    21  C   -0.000000  -0.000457
    22  C    0.000000  -0.000554
    23  O   -0.000000  -0.000797
    24  H   -0.000000   0.000004
    25  H    0.000000   0.000047
    26  H   -0.000000  -0.000188
    27  H   -0.000000  -0.000255
    28  N    0.000001   0.021550
    29  C   -0.000004  -0.005767
    30  C   -0.000069  -0.020012
    31  O    0.000002   0.003326
    32  C    0.000001   0.000019
    33  O   -0.000001   0.000198
    34  H   -0.000000   0.000241
    35  H   -0.000000  -0.000027
    36  H    0.000000  -0.000073
    37  H   -0.000001   0.001076
    38  H   -0.000009   0.000203
    39  N   -0.001536   0.287954
    40  C   -0.001815  -0.033179
    41  C    0.000018   0.001703
    42  O    0.000000  -0.000029
    43  C   -0.013560  -0.002671
    44  S    0.246061   0.008761
    45  H    0.004727   0.002729
    46  H   -0.000001  -0.000104
    47  H   -0.001452   0.000152
    48  H    0.002114   0.001231
    49  H    0.645170  -0.000110
    50  H   -0.000110   0.387496
 Mulliken charges:
               1
     1  N   -0.808612
     2  C    0.033328
     3  C    0.259942
     4  O   -0.415265
     5  C   -0.352537
     6  C    0.266443
     7  C   -0.033148
     8  N   -0.488524
     9  C    0.214173
    10  N   -0.553686
    11  H    0.315003
    12  H    0.313243
    13  H    0.155594
    14  H    0.123032
    15  H    0.144493
    16  H    0.183181
    17  H    0.141271
    18  H    0.159539
    19  H    0.336438
    20  N   -0.806479
    21  C   -0.170599
    22  C    0.593771
    23  O   -0.510481
    24  H    0.329129
    25  H    0.175331
    26  H    0.182926
    27  H    0.307194
    28  N   -0.649797
    29  C   -0.096741
    30  C    0.682092
    31  O   -0.545701
    32  C   -0.026154
    33  O   -0.629498
    34  H    0.216085
    35  H    0.145705
    36  H    0.193821
    37  H    0.304446
    38  H    0.385656
    39  N   -0.609156
    40  C    0.014631
    41  C    0.251611
    42  O   -0.368339
    43  C   -0.457379
    44  S   -0.103732
    45  H    0.165374
    46  H    0.140081
    47  H    0.200991
    48  H    0.225369
    49  H    0.120587
    50  H    0.345348
 Sum of Mulliken charges =  -0.00000
 Mulliken charges with hydrogens summed into heavy atoms:
               1
     1  N   -0.180366
     2  C    0.188922
     3  C    0.382975
     4  O   -0.415265
     5  C   -0.024863
     6  C    0.266443
     7  C    0.108123
     8  N   -0.488524
     9  C    0.373712
    10  N   -0.217248
    20  N   -0.170157
    21  C    0.187659
    22  C    0.593771
    23  O   -0.510481
    28  N   -0.345351
    29  C    0.119344
    30  C    0.682092
    31  O   -0.545701
    32  C    0.313372
    33  O   -0.243843
    39  N   -0.263807
    40  C    0.180005
    41  C    0.391692
    42  O   -0.368339
    43  C   -0.031019
    44  S    0.016855
 Electronic spatial extent (au):  <R**2>=          19335.5972
 Charge=             -0.0000 electrons
 Dipole moment (field-independent basis, Debye):
    X=              0.0014    Y=             -3.9660    Z=             -5.5607  Tot=              6.8301
 Quadrupole moment (field-independent basis, Debye-Ang):
   XX=           -176.8534   YY=           -161.0772   ZZ=           -168.8875
   XY=            -39.6053   XZ=             22.9050   YZ=             -3.3233
 Traceless Quadrupole moment (field-independent basis, Debye-Ang):
   XX=             -7.9141   YY=              7.8622   ZZ=              0.0519
   XY=            -39.6053   XZ=             22.9050   YZ=             -3.3233
 Octapole moment (field-independent basis, Debye-Ang**2):
  XXX=            -71.1147  YYY=            -13.0984  ZZZ=            -26.2342  XYY=            -31.5838
  XXY=           -101.8228  XXZ=            -24.9951  XZZ=             88.7524  YZZ=             -3.2592
  YYZ=            -19.5200  XYZ=             32.7202
 Hexadecapole moment (field-independent basis, Debye-Ang**3):
 XXXX=         -20042.2841 YYYY=          -2484.7237 ZZZZ=          -1817.4477 XXXY=          -1036.9570
 XXXZ=            521.2442 YYYX=           -345.3787 YYYZ=            -39.9778 ZZZX=            237.2150
 ZZZY=            -27.0799 XXYY=          -4393.6058 XXZZ=          -3729.9515 YYZZ=           -697.2351
 XXYZ=           -119.8925 YYXZ=              6.9482 ZZXY=            -36.7618
 N-N= 2.436360649663D+03 E-N=-8.740333617436D+03  KE= 1.638077549015D+03
 No NMR shielding tensors so no spin-rotation constants.
 Leave Link  601 at Sun Mar 22 21:52:12 2020, MaxMem= 13421772800 cpu:               5.9 elap:               0.3
 (Enter /apps/gaussian/g16-c01-avx/g16/l9999.exe)
 Unable to Open any file for archive entry.
 1\1\GINC-CX1-141-15-1\SP\RB3LYP\6-31G(d)\C14H24N6O5S1\JMF02\22-Mar-202
 0\0\\#p sp b3lyp/6-31g*\\cluster-tetrad-h.pdb\\0,1\N,0,14.695,-7.669,2
 2.205\C,0,13.932,-7.048,23.317\C,0,12.69,-7.883,23.677\O,0,12.09,-7.58
 8,24.723\C,0,13.695,-5.556,23.092\C,0,12.681,-5.185,22.062\C,0,12.753,
 -4.314,21.032\N,0,11.403,-5.688,22.058\C,0,10.72,-5.113,21.078\N,0,11.
 525,-4.262,20.448\H,0,15.026,-8.619,22.289\H,0,14.883,-7.141,21.365\H,
 0,14.543,-7.07,24.22\H,0,12.351,-8.7,23.04\H,0,14.641,-5.171,22.713\H,
 0,13.375,-5.125,24.041\H,0,13.636,-3.754,20.724\H,0,9.676,-5.305,20.83
 1\H,0,11.268,-3.675,19.667\N,0,3.118,-4.185,19.835\C,0,2.839,-5.537,19
 .343\C,0,3.354,-5.715,17.928\O,0,3.419,-6.886,17.507\H,0,3.296,-4.032,
 20.817\H,0,1.76,-5.691,19.343\H,0,3.326,-6.262,19.995\H,0,3.132,-3.406
 ,19.192\N,0,3.697,-4.622,17.237\C,0,4.114,-4.645,15.798\C,0,5.593,-5.0
 03,15.681\O,0,6.021,-5.3,14.561\C,0,3.84,-3.348,15.071\O,0,4.607,-2.26
 4,15.598\H,0,3.504,-5.409,15.316\H,0,2.785,-3.107,15.201\H,0,4.088,-3.
 476,14.017\H,0,3.674,-3.731,17.712\H,0,4.818,-2.438,16.518\N,0,6.356,-
 4.995,16.773\C,0,7.791,-5.356,16.725\C,0,7.977,-6.733,16.063\O,0,7.127
 ,-7.63,16.218\C,0,8.434,-5.236,18.1\S,0,8.311,-3.555,18.782\H,0,8.322,
 -4.643,16.095\H,0,8.86,-6.925,15.453\H,0,9.493,-5.473,17.992\H,0,7.937
 ,-5.927,18.781\H,0,8.634,-2.663,17.835\H,0,5.944,-4.736,17.658\\Versio
 n=ES64L-G16RevC.01\State=1-A\HF=-1650.6296503\RMSD=5.553e-09\Dipole=0.
 8932398,2.459291,-0.6122623\Quadrupole=26.4691554,2.0702298,-28.539385
 2,-10.3719768,-18.1728026,-0.1019481\PG=C01 [X(C14H24N6O5S1)]\\@
 The archive entry for this job was punched.


 ... IT CAN BE VERY DIFFICULT, IN THESE COMPLEX TIMES,
 TO UNDERSTAND JUST HOW SCIENTISTS DO WHAT THEY DO.

                     DON MOSER IN THE FEBRUARY 1979 SMITHSONIAN
 Job cpu time:       0 days  0 hours 13 minutes 23.4 seconds.
 Elapsed time:       0 days  0 hours  0 minutes 40.6 seconds.
 File lengths (MBytes):  RWF=    109 Int=      0 D2E=      0 Chk=     12 Scr=      1
 Normal termination of Gaussian 16 at Sun Mar 22 21:52:12 2020.
