 Entering Gaussian System, Link 0=g03
 Input=cluster-tetrad-h_plus_lig-h.com
 Output=cluster-tetrad-h_plus_lig-h.log
 Initial command:
 /apps/gaussian/g16-c01-avx/g16/l1.exe "/tmp/pbs.1232270.pbs/Gau-33126.inp" -scrdir="/tmp/pbs.1232270.pbs/"
 Entering Link 1 = /apps/gaussian/g16-c01-avx/g16/l1.exe PID=     33127.
  
 Copyright (c) 1988-2019, Gaussian, Inc.  All Rights Reserved.
  
 This is part of the Gaussian(R) 16 program.  It is based on
 the Gaussian(R) 09 system (copyright 2009, Gaussian, Inc.),
 the Gaussian(R) 03 system (copyright 2003, Gaussian, Inc.),
 the Gaussian(R) 98 system (copyright 1998, Gaussian, Inc.),
 the Gaussian(R) 94 system (copyright 1995, Gaussian, Inc.),
 the Gaussian 92(TM) system (copyright 1992, Gaussian, Inc.),
 the Gaussian 90(TM) system (copyright 1990, Gaussian, Inc.),
 the Gaussian 88(TM) system (copyright 1988, Gaussian, Inc.),
 the Gaussian 86(TM) system (copyright 1986, Carnegie Mellon
 University), and the Gaussian 82(TM) system (copyright 1983,
 Carnegie Mellon University). Gaussian is a federally registered
 trademark of Gaussian, Inc.
  
 This software contains proprietary and confidential information,
 including trade secrets, belonging to Gaussian, Inc.
  
 This software is provided under written license and may be
 used, copied, transmitted, or stored only in accord with that
 written license.
  
 The following legend is applicable only to US Government
 contracts under FAR:
  
                    RESTRICTED RIGHTS LEGEND
  
 Use, reproduction and disclosure by the US Government is
 subject to restrictions as set forth in subparagraphs (a)
 and (c) of the Commercial Computer Software - Restricted
 Rights clause in FAR 52.227-19.
  
 Gaussian, Inc.
 340 Quinnipiac St., Bldg. 40, Wallingford CT 06492
  
  
 ---------------------------------------------------------------
 Warning -- This program may not be used in any manner that
 competes with the business of Gaussian, Inc. or will provide
 assistance to any competitor of Gaussian, Inc.  The licensee
 of this program is prohibited from giving any competitor of
 Gaussian, Inc. access to this program.  By using this program,
 the user acknowledges that Gaussian, Inc. is engaged in the
 business of creating and licensing software in the field of
 computational chemistry and represents and warrants to the
 licensee that it is not a competitor of Gaussian, Inc. and that
 it will not use this program in any manner prohibited above.
 ---------------------------------------------------------------
  

 Cite this work as:
 Gaussian 16, Revision C.01,
 M. J. Frisch, G. W. Trucks, H. B. Schlegel, G. E. Scuseria, 
 M. A. Robb, J. R. Cheeseman, G. Scalmani, V. Barone, 
 G. A. Petersson, H. Nakatsuji, X. Li, M. Caricato, A. V. Marenich, 
 J. Bloino, B. G. Janesko, R. Gomperts, B. Mennucci, H. P. Hratchian, 
 J. V. Ortiz, A. F. Izmaylov, J. L. Sonnenberg, D. Williams-Young, 
 F. Ding, F. Lipparini, F. Egidi, J. Goings, B. Peng, A. Petrone, 
 T. Henderson, D. Ranasinghe, V. G. Zakrzewski, J. Gao, N. Rega, 
 G. Zheng, W. Liang, M. Hada, M. Ehara, K. Toyota, R. Fukuda, 
 J. Hasegawa, M. Ishida, T. Nakajima, Y. Honda, O. Kitao, H. Nakai, 
 T. Vreven, K. Throssell, J. A. Montgomery, Jr., J. E. Peralta, 
 F. Ogliaro, M. J. Bearpark, J. J. Heyd, E. N. Brothers, K. N. Kudin, 
 V. N. Staroverov, T. A. Keith, R. Kobayashi, J. Normand, 
 K. Raghavachari, A. P. Rendell, J. C. Burant, S. S. Iyengar, 
 J. Tomasi, M. Cossi, J. M. Millam, M. Klene, C. Adamo, R. Cammi, 
 J. W. Ochterski, R. L. Martin, K. Morokuma, O. Farkas, 
 J. B. Foresman, and D. J. Fox, Gaussian, Inc., Wallingford CT, 2019.
 
 ******************************************
 Gaussian 16:  ES64L-G16RevC.01  3-Jul-2019
                22-Mar-2020 
 ******************************************
 %mem=100GB
 %nprocshared=20
 Will use up to   20 processors via shared memory.
 ------------------
 #p sp b3lyp/6-31g*
 ------------------
 1/38=1,172=1/1;
 2/12=2,17=6,18=5,40=1/2;
 3/5=1,6=6,7=1,11=2,25=1,30=1,74=-5/1,2,3;
 4//1;
 5/5=2,38=5/2;
 6/7=2,8=2,9=2,10=2,28=1/1;
 99/5=1,9=1/99;
 Leave Link    1 at Sun Mar 22 21:51:31 2020, MaxMem= 13421772800 cpu:               0.9 elap:               0.1
 (Enter /apps/gaussian/g16-c01-avx/g16/l101.exe)
 ----------------------------
 lig_h + cluster-tetrad-h.pdb
 ----------------------------
 Symbolic Z-matrix:
 Charge =  0 Multiplicity = 1
 N                     14.695   -7.669     22.205 
 C                     13.932   -7.048     23.317 
 C                     12.69    -7.883     23.677 
 O                     12.09    -7.588     24.723 
 C                     13.695   -5.556     23.092 
 C                     12.681   -5.185     22.062 
 C                     12.753   -4.314     21.032 
 N                     11.403   -5.688     22.058 
 C                     10.72    -5.113     21.078 
 N                     11.525   -4.262     20.448 
 H                     15.026   -8.619     22.289 
 H                     14.883   -7.141     21.365 
 H                     14.543   -7.07      24.22 
 H                     12.351   -8.7       23.04 
 H                     14.641   -5.171     22.713 
 H                     13.375   -5.125     24.041 
 H                     13.636   -3.754     20.724 
 H                     9.676    -5.305     20.831 
 H                     11.268   -3.675     19.667 
 N                     3.118    -4.185     19.835 
 C                     2.839    -5.537     19.343 
 C                     3.354    -5.715     17.928 
 O                     3.419    -6.886     17.507 
 H                     3.296    -4.032     20.817 
 H                     1.76     -5.691     19.343 
 H                     3.326    -6.262     19.995 
 H                     3.132    -3.406     19.192 
 N                     3.697    -4.622     17.237 
 C                     4.114    -4.645     15.798 
 C                     5.593    -5.003     15.681 
 O                     6.021    -5.3       14.561 
 C                     3.84     -3.348     15.071 
 O                     4.607    -2.264     15.598 
 H                     3.504    -5.409     15.316 
 H                     2.785    -3.107     15.201 
 H                     4.088    -3.476     14.017 
 H                     3.674    -3.731     17.712 
 H                     4.818    -2.438     16.518 
 N                     6.356    -4.995     16.773 
 C                     7.791    -5.356     16.725 
 C                     7.977    -6.733     16.063 
 O                     7.127    -7.63      16.218 
 C                     8.434    -5.236     18.1 
 S                     8.311    -3.555     18.782 
 H                     8.322    -4.643     16.095 
 H                     8.86     -6.925     15.453 
 H                     9.493    -5.473     17.992 
 H                     7.937    -5.927     18.781 
 H                     8.634    -2.663     17.835 
 H                     5.944    -4.736     17.658 
 C                     7.712     4.976     22.568 
 N                     7.991     2.594     22.44 
 O                     6.307     3.385     23.664 
 C                     7.281     3.596     22.95 
 N                     9.096    -0.844     22.611 
 O                     5.702     0.784     16.93 
 C                     7.866     1.223     22.914 
 O                     9.866     1.017     21.611 
 C                     6.526     0.583     22.515 
 C                     6.273     0.626     21.028 
 C                     5.386     1.538     20.475 
 C                     5.174     1.599     19.108 
 C                     5.863     0.737     18.273 
 C                     6.755    -0.172     18.802 
 C                     6.951    -0.224     20.169 
 C                     9.043     0.453     22.33 
 C                     9.98     -1.728     21.882 
 C                     11.351   -1.592     22.376 
 C                     12.458   -1.642     22.833 
 Br                    14.18    -1.925     23.66 
 H                     8.693     4.932     22.095 
 H                     6.992     5.402     21.87 
 H                     7.767     5.6       23.46 
 H                     8.643     2.792     21.694 
 H                     8.511    -1.219     23.344 
 H                     5.313    -0.039     16.625 
 H                     7.88      1.201     24.004 
 H                     5.734     1.156     22.997 
 H                     6.527    -0.458     22.838 
 H                     4.845     2.221     21.13 
 H                     4.47      2.32      18.693 
 H                     7.303    -0.847     18.145 
 H                     7.654    -0.949     20.58 
 H                     9.955    -1.463     20.825 
 H                     9.649    -2.758     22.014 
 H                     10.968   -1.771     23.381 
 H                     11.72    -1.28      21.399 
 H                     12.012   -1.669     23.827 
 H                     12.91    -1.502     21.851 
 
 ITRead=  0  0  0  0  0  0  0  0  0  0  0  0  0  0  0  0  0  0  0  0
 ITRead=  0  0  0  0  0  0  0  0  0  0  0  0  0  0  0  0  0  0  0  0
 ITRead=  0  0  0  0  0  0  0  0  0  0  0  0  0  0  0  0  0  0  0  0
 ITRead=  0  0  0  0  0  0  0  0  0  0  0  0  0  0  0  0  0  0  0  0
 ITRead=  0  0  0  0  0  0  0  0  0
 MicOpt= -1 -1 -1 -1 -1 -1 -1 -1 -1 -1 -1 -1 -1 -1 -1 -1 -1 -1 -1 -1
 MicOpt= -1 -1 -1 -1 -1 -1 -1 -1 -1 -1 -1 -1 -1 -1 -1 -1 -1 -1 -1 -1
 MicOpt= -1 -1 -1 -1 -1 -1 -1 -1 -1 -1 -1 -1 -1 -1 -1 -1 -1 -1 -1 -1
 MicOpt= -1 -1 -1 -1 -1 -1 -1 -1 -1 -1 -1 -1 -1 -1 -1 -1 -1 -1 -1 -1
 MicOpt= -1 -1 -1 -1 -1 -1 -1 -1 -1
 NAtoms=     89 NQM=       89 NQMF=       0 NMMI=      0 NMMIF=      0
                NMic=       0 NMicF=      0.
                    Isotopes and Nuclear Properties:
 (Nuclear quadrupole moments (NQMom) in fm**2, nuclear magnetic moments (NMagM)
  in nuclear magnetons)

  Atom         1           2           3           4           5           6           7           8           9          10
 IAtWgt=          14          12          12          16          12          12          12          14          12          14
 AtmWgt=  14.0030740  12.0000000  12.0000000  15.9949146  12.0000000  12.0000000  12.0000000  14.0030740  12.0000000  14.0030740
 NucSpn=           2           0           0           0           0           0           0           2           0           2
 AtZEff=  -0.0000000  -0.0000000  -0.0000000  -0.0000000  -0.0000000  -0.0000000  -0.0000000  -0.0000000  -0.0000000  -0.0000000
 NQMom=    2.0440000   0.0000000   0.0000000   0.0000000   0.0000000   0.0000000   0.0000000   2.0440000   0.0000000   2.0440000
 NMagM=    0.4037610   0.0000000   0.0000000   0.0000000   0.0000000   0.0000000   0.0000000   0.4037610   0.0000000   0.4037610
 AtZNuc=   7.0000000   6.0000000   6.0000000   8.0000000   6.0000000   6.0000000   6.0000000   7.0000000   6.0000000   7.0000000

  Atom        11          12          13          14          15          16          17          18          19          20
 IAtWgt=           1           1           1           1           1           1           1           1           1          14
 AtmWgt=   1.0078250   1.0078250   1.0078250   1.0078250   1.0078250   1.0078250   1.0078250   1.0078250   1.0078250  14.0030740
 NucSpn=           1           1           1           1           1           1           1           1           1           2
 AtZEff=  -0.0000000  -0.0000000  -0.0000000  -0.0000000  -0.0000000  -0.0000000  -0.0000000  -0.0000000  -0.0000000  -0.0000000
 NQMom=    0.0000000   0.0000000   0.0000000   0.0000000   0.0000000   0.0000000   0.0000000   0.0000000   0.0000000   2.0440000
 NMagM=    2.7928460   2.7928460   2.7928460   2.7928460   2.7928460   2.7928460   2.7928460   2.7928460   2.7928460   0.4037610
 AtZNuc=   1.0000000   1.0000000   1.0000000   1.0000000   1.0000000   1.0000000   1.0000000   1.0000000   1.0000000   7.0000000

  Atom        21          22          23          24          25          26          27          28          29          30
 IAtWgt=          12          12          16           1           1           1           1          14          12          12
 AtmWgt=  12.0000000  12.0000000  15.9949146   1.0078250   1.0078250   1.0078250   1.0078250  14.0030740  12.0000000  12.0000000
 NucSpn=           0           0           0           1           1           1           1           2           0           0
 AtZEff=  -0.0000000  -0.0000000  -0.0000000  -0.0000000  -0.0000000  -0.0000000  -0.0000000  -0.0000000  -0.0000000  -0.0000000
 NQMom=    0.0000000   0.0000000   0.0000000   0.0000000   0.0000000   0.0000000   0.0000000   2.0440000   0.0000000   0.0000000
 NMagM=    0.0000000   0.0000000   0.0000000   2.7928460   2.7928460   2.7928460   2.7928460   0.4037610   0.0000000   0.0000000
 AtZNuc=   6.0000000   6.0000000   8.0000000   1.0000000   1.0000000   1.0000000   1.0000000   7.0000000   6.0000000   6.0000000

  Atom        31          32          33          34          35          36          37          38          39          40
 IAtWgt=          16          12          16           1           1           1           1           1          14          12
 AtmWgt=  15.9949146  12.0000000  15.9949146   1.0078250   1.0078250   1.0078250   1.0078250   1.0078250  14.0030740  12.0000000
 NucSpn=           0           0           0           1           1           1           1           1           2           0
 AtZEff=  -0.0000000  -0.0000000  -0.0000000  -0.0000000  -0.0000000  -0.0000000  -0.0000000  -0.0000000  -0.0000000  -0.0000000
 NQMom=    0.0000000   0.0000000   0.0000000   0.0000000   0.0000000   0.0000000   0.0000000   0.0000000   2.0440000   0.0000000
 NMagM=    0.0000000   0.0000000   0.0000000   2.7928460   2.7928460   2.7928460   2.7928460   2.7928460   0.4037610   0.0000000
 AtZNuc=   8.0000000   6.0000000   8.0000000   1.0000000   1.0000000   1.0000000   1.0000000   1.0000000   7.0000000   6.0000000

  Atom        41          42          43          44          45          46          47          48          49          50
 IAtWgt=          12          16          12          32           1           1           1           1           1           1
 AtmWgt=  12.0000000  15.9949146  12.0000000  31.9720718   1.0078250   1.0078250   1.0078250   1.0078250   1.0078250   1.0078250
 NucSpn=           0           0           0           0           1           1           1           1           1           1
 AtZEff=  -0.0000000  -0.0000000  -0.0000000  -0.0000000  -0.0000000  -0.0000000  -0.0000000  -0.0000000  -0.0000000  -0.0000000
 NQMom=    0.0000000   0.0000000   0.0000000   0.0000000   0.0000000   0.0000000   0.0000000   0.0000000   0.0000000   0.0000000
 NMagM=    0.0000000   0.0000000   0.0000000   0.0000000   2.7928460   2.7928460   2.7928460   2.7928460   2.7928460   2.7928460
 AtZNuc=   6.0000000   8.0000000   6.0000000  16.0000000   1.0000000   1.0000000   1.0000000   1.0000000   1.0000000   1.0000000

  Atom        51          52          53          54          55          56          57          58          59          60
 IAtWgt=          12          14          16          12          14          16          12          16          12          12
 AtmWgt=  12.0000000  14.0030740  15.9949146  12.0000000  14.0030740  15.9949146  12.0000000  15.9949146  12.0000000  12.0000000
 NucSpn=           0           2           0           0           2           0           0           0           0           0
 AtZEff=  -0.0000000  -0.0000000  -0.0000000  -0.0000000  -0.0000000  -0.0000000  -0.0000000  -0.0000000  -0.0000000  -0.0000000
 NQMom=    0.0000000   2.0440000   0.0000000   0.0000000   2.0440000   0.0000000   0.0000000   0.0000000   0.0000000   0.0000000
 NMagM=    0.0000000   0.4037610   0.0000000   0.0000000   0.4037610   0.0000000   0.0000000   0.0000000   0.0000000   0.0000000
 AtZNuc=   6.0000000   7.0000000   8.0000000   6.0000000   7.0000000   8.0000000   6.0000000   8.0000000   6.0000000   6.0000000

  Atom        61          62          63          64          65          66          67          68          69          70
 IAtWgt=          12          12          12          12          12          12          12          12          12          79
 AtmWgt=  12.0000000  12.0000000  12.0000000  12.0000000  12.0000000  12.0000000  12.0000000  12.0000000  12.0000000  78.9183361
 NucSpn=           0           0           0           0           0           0           0           0           0           3
 AtZEff=  -0.0000000  -0.0000000  -0.0000000  -0.0000000  -0.0000000  -0.0000000  -0.0000000  -0.0000000  -0.0000000  -0.0000000
 NQMom=    0.0000000   0.0000000   0.0000000   0.0000000   0.0000000   0.0000000   0.0000000   0.0000000   0.0000000  31.3000000
 NMagM=    0.0000000   0.0000000   0.0000000   0.0000000   0.0000000   0.0000000   0.0000000   0.0000000   0.0000000   2.1063990
 AtZNuc=   6.0000000   6.0000000   6.0000000   6.0000000   6.0000000   6.0000000   6.0000000   6.0000000   6.0000000  35.0000000

  Atom        71          72          73          74          75          76          77          78          79          80
 IAtWgt=           1           1           1           1           1           1           1           1           1           1
 AtmWgt=   1.0078250   1.0078250   1.0078250   1.0078250   1.0078250   1.0078250   1.0078250   1.0078250   1.0078250   1.0078250
 NucSpn=           1           1           1           1           1           1           1           1           1           1
 AtZEff=  -0.0000000  -0.0000000  -0.0000000  -0.0000000  -0.0000000  -0.0000000  -0.0000000  -0.0000000  -0.0000000  -0.0000000
 NQMom=    0.0000000   0.0000000   0.0000000   0.0000000   0.0000000   0.0000000   0.0000000   0.0000000   0.0000000   0.0000000
 NMagM=    2.7928460   2.7928460   2.7928460   2.7928460   2.7928460   2.7928460   2.7928460   2.7928460   2.7928460   2.7928460
 AtZNuc=   1.0000000   1.0000000   1.0000000   1.0000000   1.0000000   1.0000000   1.0000000   1.0000000   1.0000000   1.0000000

  Atom        81          82          83          84          85          86          87          88          89
 IAtWgt=           1           1           1           1           1           1           1           1           1
 AtmWgt=   1.0078250   1.0078250   1.0078250   1.0078250   1.0078250   1.0078250   1.0078250   1.0078250   1.0078250
 NucSpn=           1           1           1           1           1           1           1           1           1
 AtZEff=  -0.0000000  -0.0000000  -0.0000000  -0.0000000  -0.0000000  -0.0000000  -0.0000000  -0.0000000  -0.0000000
 NQMom=    0.0000000   0.0000000   0.0000000   0.0000000   0.0000000   0.0000000   0.0000000   0.0000000   0.0000000
 NMagM=    2.7928460   2.7928460   2.7928460   2.7928460   2.7928460   2.7928460   2.7928460   2.7928460   2.7928460
 AtZNuc=   1.0000000   1.0000000   1.0000000   1.0000000   1.0000000   1.0000000   1.0000000   1.0000000   1.0000000
 Leave Link  101 at Sun Mar 22 21:51:31 2020, MaxMem= 13421772800 cpu:               6.1 elap:               0.3
 (Enter /apps/gaussian/g16-c01-avx/g16/l202.exe)
 Stoichiometry    C28H43BrN8O8S
 Framework group  C1[X(C28H43BrN8O8S)]
 Deg. of freedom   261
 Full point group                 C1      NOp   1
 Largest Abelian subgroup         C1      NOp   1
 Largest concise Abelian subgroup C1      NOp   1
                         Standard orientation:                         
 ---------------------------------------------------------------------
 Center     Atomic      Atomic             Coordinates (Angstroms)
 Number     Number       Type             X           Y           Z
 ---------------------------------------------------------------------
      1          7           0        6.021265   -5.406159   -0.274252
      2          6           0        6.070870   -4.364002    0.782063
      3          6           0        5.278927   -4.794967    2.029654
      4          8           0        5.418395   -4.110914    3.056183
      5          6           0        5.756706   -2.972740    0.235666
      6          6           0        4.331924   -2.692239   -0.107921
      7          6           0        3.784785   -2.166280   -1.225387
      8          7           0        3.297323   -2.901871    0.770693
      9          6           0        2.170045   -2.484526    0.211602
     10          7           0        2.450136   -2.021013   -1.003236
     11          1           0        6.331128   -6.345287   -0.071421
     12          1           0        5.677896   -5.175425   -1.195440
     13          1           0        7.098252   -4.267235    1.134677
     14          1           0        4.622626   -5.665121    2.012945
     15          1           0        6.296045   -2.908812   -0.708690
     16          1           0        6.064961   -2.244935    0.986693
     17          1           0        4.316709   -1.905581   -2.140399
     18          1           0        1.181777   -2.515759    0.670035
     19          1           0        1.783927   -1.626786   -1.652335
     20          7           0       -4.680837   -0.374608    3.179818
     21          6           0       -5.206443   -1.721099    3.421705
     22          6           0       -5.632436   -2.377203    2.122786
     23          8           0       -5.837772   -3.605496    2.165692
     24          1           0       -3.953984   -0.002350    3.773557
     25          1           0       -6.076110   -1.642647    4.073995
     26          1           0       -4.432536   -2.327524    3.892037
     27          1           0       -5.045721    0.181361    2.419394
     28          7           0       -5.758816   -1.607006    1.036230
     29          6           0       -6.276890   -2.103561   -0.279130
     30          6           0       -5.158082   -2.777834   -1.068383
     31          8           0       -5.479924   -3.448164   -2.054724
     32          6           0       -6.919945   -1.023589   -1.119341
     33          8           0       -5.982537   -0.020633   -1.514840
     34          1           0       -7.059049   -2.825940   -0.045645
     35          1           0       -7.690502   -0.543558   -0.516167
     36          1           0       -7.346397   -1.479931   -2.013038
     37          1           0       -5.489532   -0.636115    1.106172
     38          1           0       -5.268110    0.020560   -0.875235
     39          7           0       -3.896018   -2.633264   -0.667145
     40          6           0       -2.771721   -3.282618   -1.378584
     41          6           0       -3.024003   -4.794747   -1.515653
     42          8           0       -3.622401   -5.420491   -0.620389
     43          6           0       -1.437627   -2.931467   -0.734099
     44         16           0       -1.120707   -1.141108   -0.720299
     45          1           0       -2.713142   -2.892177   -2.394140
     46          1           0       -2.676316   -5.322749   -2.403899
     47          1           0       -0.650773   -3.402622   -1.324173
     48          1           0       -1.438433   -3.294482    0.293748
     49          1           0       -1.416406   -0.624922   -1.921513
     50          1           0       -3.700955   -2.065446    0.145002
     51          6           0        0.700671    8.027408   -0.417897
     52          7           0        0.833223    5.695214    0.140179
     53          8           0        0.208988    7.118049    1.735667
     54          6           0        0.570967    6.922088    0.580867
     55          7           0        1.800948    2.279858    0.824988
     56          8           0       -4.290263    2.978698   -2.150270
     57          6           0        1.004493    4.559887    1.035523
     58          8           0        1.840214    3.600429   -0.994565
     59          6           0       -0.315261    4.127576    1.695643
     60          6           0       -1.400730    3.818755    0.693937
     61          6           0       -2.436656    4.710529    0.457469
     62          6           0       -3.417812    4.442560   -0.482147
     63          6           0       -3.364304    3.263904   -1.205263
     64          6           0       -2.338570    2.367434   -0.990796
     65          6           0       -1.370232    2.647177   -0.045346
     66          6           0        1.600370    3.434556    0.200152
     67          6           0        2.074167    1.068793    0.081330
     68          6           0        3.471820    1.046414   -0.352535
     69          6           0        4.633738    0.893765   -0.604410
     70         35           0        6.508656    0.494691   -0.838348
     71          1           0        1.209522    7.655300   -1.307072
     72          1           0       -0.290118    8.388460   -0.691863
     73          1           0        1.278305    8.843711    0.015756
     74          1           0        0.916914    5.545013   -0.855441
     75          1           0        1.762285    2.246244    1.833707
     76          1           0       -4.789914    2.202914   -1.885350
     77          1           0        1.662202    4.830688    1.861880
     78          1           0       -0.663042    4.960449    2.306616
     79          1           0       -0.129898    3.235709    2.294161
     80          1           0       -2.479007    5.641627    1.022676
     81          1           0       -4.225850    5.154134   -0.650730
     82          1           0       -2.291715    1.441871   -1.564134
     83          1           0       -0.565400    1.930968    0.122119
     84          1           0        1.428822    1.037684   -0.796544
     85          1           0        1.879034    0.204381    0.715837
     86          1           0        3.758448    1.228771    0.683489
     87          1           0        3.191430    0.999582   -1.404781
     88          1           0        4.864154    1.229119    0.406593
     89          1           0        4.416036    0.666669   -1.648087
 ---------------------------------------------------------------------
 Rotational constants (GHZ):           0.0501859           0.0342767           0.0228009
 Leave Link  202 at Sun Mar 22 21:51:31 2020, MaxMem= 13421772800 cpu:               0.1 elap:               0.0
 (Enter /apps/gaussian/g16-c01-avx/g16/l301.exe)
 Standard basis: 6-31G(d) (6D, 7F)
 Ernie: Thresh=  0.10000D-02 Tol=  0.10000D-05 Strict=F.
 There are   795 symmetry adapted cartesian basis functions of A   symmetry.
 There are   795 symmetry adapted basis functions of A   symmetry.
   795 basis functions,  1539 primitive gaussians,   795 cartesian basis functions
   191 alpha electrons      191 beta electrons
       nuclear repulsion energy      6789.3450056326 Hartrees.
 IExCor=  402 DFT=T Ex+Corr=B3LYP ExCW=0 ScaHFX=  0.200000
 ScaDFX=  0.800000  0.720000  1.000000  0.810000 ScalE2=  1.000000  1.000000
 IRadAn=      5 IRanWt=     -1 IRanGd=            0 ICorTp=0 IEmpDi=  4
 NAtoms=   89 NActive=   89 NUniq=   89 SFac= 1.00D+00 NAtFMM=   60 NAOKFM=T Big=T
 Integral buffers will be    131072 words long.
 Raffenetti 2 integral format.
 Two-electron integral symmetry is turned on.
 Leave Link  301 at Sun Mar 22 21:51:31 2020, MaxMem= 13421772800 cpu:               1.6 elap:               0.1
 (Enter /apps/gaussian/g16-c01-avx/g16/l302.exe)
 NPDir=0 NMtPBC=     1 NCelOv=     1 NCel=       1 NClECP=     1 NCelD=      1
         NCelK=      1 NCelE2=     1 NClLst=     1 CellRange=     0.0.
 One-electron integrals computed using PRISM.
 One-electron integral symmetry used in STVInt
 NBasis=   795 RedAO= T EigKep=  3.11D-04  NBF=   795
 NBsUse=   795 1.00D-06 EigRej= -1.00D+00 NBFU=   795
 Precomputing XC quadrature grid using
 IXCGrd= 4 IRadAn=           5 IRanWt=          -1 IRanGd=           0 AccXCQ= 0.00D+00.
 Generated NRdTot=       0 NPtTot=           0 NUsed=           0 NTot=          32
 NSgBfM=   738   729   734   735   738 MxSgAt=    89 MxSgA2=    89.
 Leave Link  302 at Sun Mar 22 21:51:34 2020, MaxMem= 13421772800 cpu:              46.0 elap:               2.3
 (Enter /apps/gaussian/g16-c01-avx/g16/l303.exe)
 DipDrv:  MaxL=1.
 Leave Link  303 at Sun Mar 22 21:51:34 2020, MaxMem= 13421772800 cpu:               3.4 elap:               0.2
 (Enter /apps/gaussian/g16-c01-avx/g16/l401.exe)
 ExpMin= 1.17D-01 ExpMax= 5.74D+05 ExpMxC= 5.74D+03 IAcc=3 IRadAn=         5 AccDes= 0.00D+00
 Harris functional with IExCor=  402 and IRadAn=       5 diagonalized for initial guess.
 HarFok:  IExCor=  402 AccDes= 0.00D+00 IRadAn=         5 IDoV= 1 UseB2=F ITyADJ=14
 ICtDFT=  3500011 ScaDFX=  1.000000  1.000000  1.000000  1.000000
 FoFCou: FMM=F IPFlag=           0 FMFlag=      100000 FMFlg1=        2001
         NFxFlg=           0 DoJE=T BraDBF=F KetDBF=T FulRan=T
         wScrn=  0.000000 ICntrl=       500 IOpCl=  0 I1Cent=   200000004 NGrid=           0
         NMat0=    1 NMatS0=      1 NMatT0=    0 NMatD0=    1 NMtDS0=    0 NMtDT0=    0
 Petite list used in FoFCou.
 Harris En= -5102.06374930609    
 JPrj=0 DoOrth=F DoCkMO=F.
 Leave Link  401 at Sun Mar 22 21:51:40 2020, MaxMem= 13421772800 cpu:             122.6 elap:               6.1
 (Enter /apps/gaussian/g16-c01-avx/g16/l502.exe)
 Integral symmetry usage will be decided dynamically.
 Closed shell SCF:
 Using DIIS extrapolation, IDIIS=  1040.
 NGot= 13421772800 LenX= 13420482034 LenY= 13419849214
 Requested convergence on RMS density matrix=1.00D-08 within 128 cycles.
 Requested convergence on MAX density matrix=1.00D-06.
 Requested convergence on             energy=1.00D-06.
 No special actions if energy rises.
 Fock matrices will be formed incrementally for  20 cycles.
 Integral accuracy reduced to 1.0D-05 until final iterations.

 Cycle   1  Pass 0  IDiag  1:
 FoFJK:  IHMeth= 1 ICntrl=       0 DoSepK=F KAlg= 0 I1Cent=           0 FoldK=F
 IRaf= 760000000 NMat=       1 IRICut=       1 DoRegI=T DoRafI=F ISym2E= 0 IDoP0=0 IntGTp=1.
 FoFCou: FMM=T IPFlag=           0 FMFlag=      100000 FMFlg1=        2001
         NFxFlg=           0 DoJE=F BraDBF=F KetDBF=F FulRan=T
         wScrn=  0.000000 ICntrl=         0 IOpCl=  0 I1Cent=           0 NGrid=           0
         NMat0=    1 NMatS0=      1 NMatT0=    0 NMatD0=    1 NMtDS0=    0 NMtDT0=    0
 Symmetry not used in FoFCou.
 FMM levels:  10  Number of levels for PrismC:   9
 E= -5100.59553174406    
 DIIS: error= 1.89D-01 at cycle   1 NSaved=   1.
 NSaved= 1 IEnMin= 1 EnMin= -5100.59553174406     IErMin= 1 ErrMin= 1.89D-01
 ErrMax= 1.89D-01  0.00D+00 EMaxC= 1.00D-01 BMatC= 1.78D+00 BMatP= 1.78D+00
 IDIUse=3 WtCom= 0.00D+00 WtEn= 1.00D+00
 Coeff-Com:  0.100D+01
 Coeff-En:   0.100D+01
 Coeff:      0.100D+01
 Gap=     0.296 Goal=   None    Shift=    0.000
 GapD=    0.296 DampG=1.000 DampE=0.250 DampFc=0.2500 IDamp=-1.
 Damping current iteration by 2.50D-01
 RMSDP=8.13D-03 MaxDP=2.19D+00              OVMax= 9.93D-01

 Cycle   2  Pass 0  IDiag  1:
 RMSU=  2.03D-03    CP:  9.91D-01
 E= -5100.91176383462     Delta-E=       -0.316232090559 Rises=F Damp=T
 DIIS: error= 1.41D-01 at cycle   2 NSaved=   2.
 NSaved= 2 IEnMin= 2 EnMin= -5100.91176383462     IErMin= 2 ErrMin= 1.41D-01
 ErrMax= 1.41D-01  0.00D+00 EMaxC= 1.00D-01 BMatC= 4.69D-01 BMatP= 1.78D+00
 IDIUse=3 WtCom= 0.00D+00 WtEn= 1.00D+00
 Coeff-Com: -0.460D+00 0.146D+01
 Coeff-En:   0.159D+00 0.841D+00
 Coeff:      0.159D+00 0.841D+00
 Gap=    -0.310 Goal=   None    Shift=    0.000
 RMSDP=2.47D-03 MaxDP=5.31D-01 DE=-3.16D-01 OVMax= 7.50D-01

 Cycle   3  Pass 0  IDiag  1:
 RMSU=  2.39D-03    CP:  9.72D-01  7.46D-01
 E= -5101.56268218728     Delta-E=       -0.650918352665 Rises=F Damp=F
 DIIS: error= 1.68D-02 at cycle   3 NSaved=   3.
 NSaved= 3 IEnMin= 3 EnMin= -5101.56268218728     IErMin= 3 ErrMin= 1.68D-02
 ErrMax= 1.68D-02  0.00D+00 EMaxC= 1.00D-01 BMatC= 3.97D-01 BMatP= 4.69D-01
 IDIUse=3 WtCom= 8.32D-01 WtEn= 1.68D-01
 Coeff-Com:  0.209D+00 0.155D+00 0.635D+00
 Coeff-En:   0.179D+00 0.000D+00 0.821D+00
 Coeff:      0.204D+00 0.129D+00 0.667D+00
 Gap=     0.065 Goal=   None    Shift=    0.000
 RMSDP=1.25D-03 MaxDP=9.59D-02 DE=-6.51D-01 OVMax= 1.21D-01

 Cycle   4  Pass 0  IDiag  1:
 RMSU=  9.06D-04    CP:  9.76D-01  5.81D-01  6.70D-01
 E= -5101.84407252544     Delta-E=       -0.281390338159 Rises=F Damp=F
 DIIS: error= 5.78D-03 at cycle   4 NSaved=   4.
 NSaved= 4 IEnMin= 4 EnMin= -5101.84407252544     IErMin= 4 ErrMin= 5.78D-03
 ErrMax= 5.78D-03  0.00D+00 EMaxC= 1.00D-01 BMatC= 7.30D-02 BMatP= 3.97D-01
 IDIUse=3 WtCom= 9.42D-01 WtEn= 5.78D-02
 Coeff-Com:  0.131D+00-0.840D-01 0.373D+00 0.580D+00
 Coeff-En:   0.000D+00 0.000D+00 0.112D+00 0.888D+00
 Coeff:      0.124D+00-0.791D-01 0.358D+00 0.597D+00
 Gap=     0.082 Goal=   None    Shift=    0.000
 RMSDP=9.91D-04 MaxDP=1.24D-01 DE=-2.81D-01 OVMax= 2.76D-01

 Cycle   5  Pass 0  IDiag  1:
 RMSU=  6.35D-04    CP:  9.78D-01  4.69D-01  6.55D-01  2.01D-01
 E= -5101.87714997403     Delta-E=       -0.033077448594 Rises=F Damp=F
 DIIS: error= 4.09D-03 at cycle   5 NSaved=   5.
 NSaved= 5 IEnMin= 5 EnMin= -5101.87714997403     IErMin= 5 ErrMin= 4.09D-03
 ErrMax= 4.09D-03  0.00D+00 EMaxC= 1.00D-01 BMatC= 2.91D-02 BMatP= 7.30D-02
 IDIUse=3 WtCom= 9.59D-01 WtEn= 4.09D-02
 Coeff-Com:  0.766D-01-0.692D-01 0.207D+00 0.426D+00 0.360D+00
 Coeff-En:   0.000D+00 0.000D+00 0.000D+00 0.361D+00 0.639D+00
 Coeff:      0.735D-01-0.664D-01 0.198D+00 0.423D+00 0.371D+00
 Gap=     0.060 Goal=   None    Shift=    0.000
 RMSDP=7.56D-04 MaxDP=1.01D-01 DE=-3.31D-02 OVMax= 2.25D-01

 Cycle   6  Pass 0  IDiag  1:
 RMSU=  1.63D-04    CP:  9.76D-01  5.85D-01  7.24D-01  6.56D-01  1.50D-01
 E= -5101.90870553529     Delta-E=       -0.031555561254 Rises=F Damp=F
 DIIS: error= 1.89D-03 at cycle   6 NSaved=   6.
 NSaved= 6 IEnMin= 6 EnMin= -5101.90870553529     IErMin= 6 ErrMin= 1.89D-03
 ErrMax= 1.89D-03  0.00D+00 EMaxC= 1.00D-01 BMatC= 3.88D-03 BMatP= 2.91D-02
 IDIUse=3 WtCom= 9.81D-01 WtEn= 1.89D-02
 Coeff-Com:  0.511D-01-0.606D-01 0.102D+00 0.222D+00 0.269D+00 0.417D+00
 Coeff-En:   0.000D+00 0.000D+00 0.000D+00 0.000D+00 0.152D+00 0.848D+00
 Coeff:      0.502D-01-0.595D-01 0.996D-01 0.218D+00 0.267D+00 0.425D+00
 Gap=     0.066 Goal=   None    Shift=    0.000
 RMSDP=2.39D-04 MaxDP=3.75D-02 DE=-3.16D-02 OVMax= 6.94D-02

 Cycle   7  Pass 0  IDiag  1:
 RMSU=  7.24D-05    CP:  9.76D-01  5.43D-01  7.09D-01  5.29D-01  3.90D-01
                    CP:  5.00D-01
 E= -5101.91322341377     Delta-E=       -0.004517878484 Rises=F Damp=F
 DIIS: error= 7.39D-04 at cycle   7 NSaved=   7.
 NSaved= 7 IEnMin= 7 EnMin= -5101.91322341377     IErMin= 7 ErrMin= 7.39D-04
 ErrMax= 7.39D-04  0.00D+00 EMaxC= 1.00D-01 BMatC= 4.96D-04 BMatP= 3.88D-03
 IDIUse=3 WtCom= 9.93D-01 WtEn= 7.39D-03
 Coeff-Com:  0.290D-01-0.372D-01 0.384D-01 0.709D-01 0.119D+00 0.292D+00
 Coeff-Com:  0.489D+00
 Coeff-En:   0.000D+00 0.000D+00 0.000D+00 0.000D+00 0.000D+00 0.711D-01
 Coeff-En:   0.929D+00
 Coeff:      0.288D-01-0.370D-01 0.382D-01 0.703D-01 0.118D+00 0.290D+00
 Coeff:      0.492D+00
 Gap=     0.066 Goal=   None    Shift=    0.000
 RMSDP=6.21D-05 MaxDP=1.01D-02 DE=-4.52D-03 OVMax= 1.66D-02

 Cycle   8  Pass 0  IDiag  1:
 RMSU=  2.53D-05    CP:  9.76D-01  5.51D-01  7.13D-01  5.52D-01  3.31D-01
                    CP:  6.23D-01  6.65D-01
 E= -5101.91362488973     Delta-E=       -0.000401475954 Rises=F Damp=F
 DIIS: error= 2.71D-04 at cycle   8 NSaved=   8.
 NSaved= 8 IEnMin= 8 EnMin= -5101.91362488973     IErMin= 8 ErrMin= 2.71D-04
 ErrMax= 2.71D-04  0.00D+00 EMaxC= 1.00D-01 BMatC= 9.76D-05 BMatP= 4.96D-04
 IDIUse=3 WtCom= 9.97D-01 WtEn= 2.71D-03
 Coeff-Com:  0.171D-01-0.228D-01 0.142D-01 0.128D-01 0.384D-01 0.122D+00
 Coeff-Com:  0.319D+00 0.499D+00
 Coeff-En:   0.000D+00 0.000D+00 0.000D+00 0.000D+00 0.000D+00 0.000D+00
 Coeff-En:   0.901D-01 0.910D+00
 Coeff:      0.170D-01-0.228D-01 0.142D-01 0.127D-01 0.383D-01 0.122D+00
 Coeff:      0.318D+00 0.501D+00
 Gap=     0.066 Goal=   None    Shift=    0.000
 RMSDP=1.81D-05 MaxDP=2.15D-03 DE=-4.01D-04 OVMax= 3.83D-03

 Cycle   9  Pass 0  IDiag  1:
 RMSU=  1.09D-05    CP:  9.76D-01  5.48D-01  7.12D-01  5.42D-01  3.41D-01
                    CP:  6.03D-01  7.27D-01  8.39D-01
 E= -5101.91371457286     Delta-E=       -0.000089683139 Rises=F Damp=F
 DIIS: error= 1.72D-04 at cycle   9 NSaved=   9.
 NSaved= 9 IEnMin= 9 EnMin= -5101.91371457286     IErMin= 9 ErrMin= 1.72D-04
 ErrMax= 1.72D-04  0.00D+00 EMaxC= 1.00D-01 BMatC= 1.88D-05 BMatP= 9.76D-05
 IDIUse=3 WtCom= 9.98D-01 WtEn= 1.72D-03
 Coeff-Com:  0.822D-02-0.109D-01 0.425D-02-0.511D-02 0.431D-03 0.622D-02
 Coeff-Com:  0.619D-01 0.230D+00 0.705D+00
 Coeff-En:   0.000D+00 0.000D+00 0.000D+00 0.000D+00 0.000D+00 0.000D+00
 Coeff-En:   0.000D+00 0.000D+00 0.100D+01
 Coeff:      0.821D-02-0.108D-01 0.424D-02-0.511D-02 0.430D-03 0.621D-02
 Coeff:      0.618D-01 0.230D+00 0.705D+00
 Gap=     0.067 Goal=   None    Shift=    0.000
 RMSDP=6.22D-06 MaxDP=4.09D-04 DE=-8.97D-05 OVMax= 6.62D-04

 Initial convergence to 1.0D-05 achieved.  Increase integral accuracy.
 Cycle  10  Pass 1  IDiag  1:
 E= -5101.91373319331     Delta-E=       -0.000018620449 Rises=F Damp=F
 DIIS: error= 2.02D-04 at cycle   1 NSaved=   1.
 NSaved= 1 IEnMin= 1 EnMin= -5101.91373319331     IErMin= 1 ErrMin= 2.02D-04
 ErrMax= 2.02D-04  0.00D+00 EMaxC= 1.00D-01 BMatC= 1.15D-05 BMatP= 1.15D-05
 IDIUse=3 WtCom= 9.98D-01 WtEn= 2.02D-03
 Coeff-Com:  0.100D+01
 Coeff-En:   0.100D+01
 Coeff:      0.100D+01
 Gap=     0.067 Goal=   None    Shift=    0.000
 RMSDP=6.22D-06 MaxDP=4.09D-04 DE=-1.86D-05 OVMax= 4.14D-03

 Cycle  11  Pass 1  IDiag  1:
 RMSU=  7.62D-05    CP:  1.00D+00
 E= -5101.91371850498     Delta-E=        0.000014688338 Rises=F Damp=F
 DIIS: error= 1.42D-04 at cycle   2 NSaved=   2.
 NSaved= 2 IEnMin= 1 EnMin= -5101.91373319331     IErMin= 2 ErrMin= 1.42D-04
 ErrMax= 1.42D-04  0.00D+00 EMaxC= 1.00D-01 BMatC= 2.48D-05 BMatP= 1.15D-05
 IDIUse=3 WtCom= 4.56D-01 WtEn= 5.44D-01
 Coeff-Com:  0.619D+00 0.381D+00
 Coeff-En:   0.691D+00 0.309D+00
 Coeff:      0.658D+00 0.342D+00
 Gap=     0.067 Goal=   None    Shift=    0.000
 RMSDP=1.71D-05 MaxDP=2.23D-03 DE= 1.47D-05 OVMax= 4.77D-03

 Cycle  12  Pass 1  IDiag  1:
 RMSU=  1.68D-05    CP:  1.00D+00  9.56D-01
 E= -5101.91374265617     Delta-E=       -0.000024151190 Rises=F Damp=F
 DIIS: error= 4.34D-05 at cycle   3 NSaved=   3.
 NSaved= 3 IEnMin= 3 EnMin= -5101.91374265617     IErMin= 3 ErrMin= 4.34D-05
 ErrMax= 4.34D-05  0.00D+00 EMaxC= 1.00D-01 BMatC= 2.53D-06 BMatP= 1.15D-05
 IDIUse=1 WtCom= 1.00D+00 WtEn= 0.00D+00
 Coeff-Com:  0.150D+00 0.226D+00 0.624D+00
 Coeff:      0.150D+00 0.226D+00 0.624D+00
 Gap=     0.067 Goal=   None    Shift=    0.000
 RMSDP=9.11D-06 MaxDP=1.35D-03 DE=-2.42D-05 OVMax= 2.69D-03

 Cycle  13  Pass 1  IDiag  1:
 RMSU=  3.86D-06    CP:  1.00D+00  9.84D-01  5.25D-01
 E= -5101.91374352180     Delta-E=       -0.000000865635 Rises=F Damp=F
 DIIS: error= 4.04D-05 at cycle   4 NSaved=   4.
 NSaved= 4 IEnMin= 4 EnMin= -5101.91374352180     IErMin= 4 ErrMin= 4.04D-05
 ErrMax= 4.04D-05  0.00D+00 EMaxC= 1.00D-01 BMatC= 1.88D-06 BMatP= 2.53D-06
 IDIUse=1 WtCom= 1.00D+00 WtEn= 0.00D+00
 Coeff-Com:  0.154D-01 0.117D+00 0.490D+00 0.378D+00
 Coeff:      0.154D-01 0.117D+00 0.490D+00 0.378D+00
 Gap=     0.067 Goal=   None    Shift=    0.000
 RMSDP=5.01D-06 MaxDP=7.55D-04 DE=-8.66D-07 OVMax= 1.48D-03

 Cycle  14  Pass 1  IDiag  1:
 RMSU=  8.25D-07    CP:  1.00D+00  9.75D-01  7.78D-01  3.70D-01
 E= -5101.91374570898     Delta-E=       -0.000002187184 Rises=F Damp=F
 DIIS: error= 1.02D-05 at cycle   5 NSaved=   5.
 NSaved= 5 IEnMin= 5 EnMin= -5101.91374570898     IErMin= 5 ErrMin= 1.02D-05
 ErrMax= 1.02D-05  0.00D+00 EMaxC= 1.00D-01 BMatC= 9.96D-08 BMatP= 1.88D-06
 IDIUse=1 WtCom= 1.00D+00 WtEn= 0.00D+00
 Coeff-Com: -0.552D-03 0.632D-01 0.273D+00 0.255D+00 0.409D+00
 Coeff:     -0.552D-03 0.632D-01 0.273D+00 0.255D+00 0.409D+00
 Gap=     0.067 Goal=   None    Shift=    0.000
 RMSDP=8.87D-07 MaxDP=1.15D-04 DE=-2.19D-06 OVMax= 2.39D-04

 Cycle  15  Pass 1  IDiag  1:
 RMSU=  1.96D-07    CP:  1.00D+00  9.77D-01  7.35D-01  4.23D-01  5.27D-01
 E= -5101.91374581886     Delta-E=       -0.000000109880 Rises=F Damp=F
 DIIS: error= 2.40D-06 at cycle   6 NSaved=   6.
 NSaved= 6 IEnMin= 6 EnMin= -5101.91374581886     IErMin= 6 ErrMin= 2.40D-06
 ErrMax= 2.40D-06  0.00D+00 EMaxC= 1.00D-01 BMatC= 4.22D-09 BMatP= 9.96D-08
 IDIUse=1 WtCom= 1.00D+00 WtEn= 0.00D+00
 Coeff-Com: -0.114D-02 0.332D-01 0.138D+00 0.136D+00 0.246D+00 0.447D+00
 Coeff:     -0.114D-02 0.332D-01 0.138D+00 0.136D+00 0.246D+00 0.447D+00
 Gap=     0.067 Goal=   None    Shift=    0.000
 RMSDP=1.00D-07 MaxDP=9.69D-06 DE=-1.10D-07 OVMax= 1.41D-05

 Cycle  16  Pass 1  IDiag  1:
 RMSU=  6.75D-08    CP:  1.00D+00  9.77D-01  7.36D-01  4.19D-01  5.25D-01
                    CP:  6.40D-01
 E= -5101.91374582245     Delta-E=       -0.000000003582 Rises=F Damp=F
 DIIS: error= 6.46D-07 at cycle   7 NSaved=   7.
 NSaved= 7 IEnMin= 7 EnMin= -5101.91374582245     IErMin= 7 ErrMin= 6.46D-07
 ErrMax= 6.46D-07  0.00D+00 EMaxC= 1.00D-01 BMatC= 3.75D-10 BMatP= 4.22D-09
 IDIUse=1 WtCom= 1.00D+00 WtEn= 0.00D+00
 Coeff-Com: -0.631D-03 0.141D-01 0.556D-01 0.571D-01 0.102D+00 0.263D+00
 Coeff-Com:  0.508D+00
 Coeff:     -0.631D-03 0.141D-01 0.556D-01 0.571D-01 0.102D+00 0.263D+00
 Coeff:      0.508D+00
 Gap=     0.067 Goal=   None    Shift=    0.000
 RMSDP=3.21D-08 MaxDP=2.47D-06 DE=-3.58D-09 OVMax= 5.04D-06

 Cycle  17  Pass 1  IDiag  1:
 RMSU=  2.69D-08    CP:  1.00D+00  9.77D-01  7.35D-01  4.17D-01  5.24D-01
                    CP:  6.81D-01  8.65D-01
 E= -5101.91374582282     Delta-E=       -0.000000000369 Rises=F Damp=F
 DIIS: error= 2.05D-07 at cycle   8 NSaved=   8.
 NSaved= 8 IEnMin= 8 EnMin= -5101.91374582282     IErMin= 8 ErrMin= 2.05D-07
 ErrMax= 2.05D-07  0.00D+00 EMaxC= 1.00D-01 BMatC= 5.34D-11 BMatP= 3.75D-10
 IDIUse=1 WtCom= 1.00D+00 WtEn= 0.00D+00
 Coeff-Com: -0.183D-03 0.321D-02 0.103D-01 0.126D-01 0.178D-01 0.821D-01
 Coeff-Com:  0.290D+00 0.584D+00
 Coeff:     -0.183D-03 0.321D-02 0.103D-01 0.126D-01 0.178D-01 0.821D-01
 Coeff:      0.290D+00 0.584D+00
 Gap=     0.067 Goal=   None    Shift=    0.000
 RMSDP=1.39D-08 MaxDP=2.49D-06 DE=-3.69D-10 OVMax= 2.02D-06

 Cycle  18  Pass 1  IDiag  1:
 RMSU=  1.02D-08    CP:  1.00D+00  9.77D-01  7.35D-01  4.18D-01  5.25D-01
                    CP:  6.99D-01  9.48D-01  9.74D-01
 E= -5101.91374582281     Delta-E=        0.000000000004 Rises=F Damp=F
 DIIS: error= 6.08D-08 at cycle   9 NSaved=   9.
 NSaved= 9 IEnMin= 8 EnMin= -5101.91374582282     IErMin= 9 ErrMin= 6.08D-08
 ErrMax= 6.08D-08  0.00D+00 EMaxC= 1.00D-01 BMatC= 7.92D-12 BMatP= 5.34D-11
 IDIUse=1 WtCom= 1.00D+00 WtEn= 0.00D+00
 Coeff-Com: -0.287D-05-0.259D-03-0.265D-02-0.111D-02-0.661D-02 0.746D-02
 Coeff-Com:  0.851D-01 0.309D+00 0.609D+00
 Coeff:     -0.287D-05-0.259D-03-0.265D-02-0.111D-02-0.661D-02 0.746D-02
 Coeff:      0.851D-01 0.309D+00 0.609D+00
 Gap=     0.067 Goal=   None    Shift=    0.000
 RMSDP=6.40D-09 MaxDP=6.73D-07 DE= 3.64D-12 OVMax= 1.43D-06

 SCF Done:  E(RB3LYP) =  -5101.91374582     A.U. after   18 cycles
            NFock= 18  Conv=0.64D-08     -V/T= 2.0067
 KE= 5.068157323757D+03 PE=-2.562594318442D+04 EE= 8.666527109209D+03
 Leave Link  502 at Sun Mar 22 21:54:04 2020, MaxMem= 13421772800 cpu:            2869.2 elap:             143.9
 (Enter /apps/gaussian/g16-c01-avx/g16/l601.exe)
 Copying SCF densities to generalized density rwf, IOpCl= 0 IROHF=0.

 **********************************************************************

            Population analysis using the SCF Density.

 **********************************************************************

 Orbital symmetries:
       Occupied  (A) (A) (A) (A) (A) (A) (A) (A) (A) (A) (A) (A)
                 (A) (A) (A) (A) (A) (A) (A) (A) (A) (A) (A) (A)
                 (A) (A) (A) (A) (A) (A) (A) (A) (A) (A) (A) (A)
                 (A) (A) (A) (A) (A) (A) (A) (A) (A) (A) (A) (A)
                 (A) (A) (A) (A) (A) (A) (A) (A) (A) (A) (A) (A)
                 (A) (A) (A) (A) (A) (A) (A) (A) (A) (A) (A) (A)
                 (A) (A) (A) (A) (A) (A) (A) (A) (A) (A) (A) (A)
                 (A) (A) (A) (A) (A) (A) (A) (A) (A) (A) (A) (A)
                 (A) (A) (A) (A) (A) (A) (A) (A) (A) (A) (A) (A)
                 (A) (A) (A) (A) (A) (A) (A) (A) (A) (A) (A) (A)
                 (A) (A) (A) (A) (A) (A) (A) (A) (A) (A) (A) (A)
                 (A) (A) (A) (A) (A) (A) (A) (A) (A) (A) (A) (A)
                 (A) (A) (A) (A) (A) (A) (A) (A) (A) (A) (A) (A)
                 (A) (A) (A) (A) (A) (A) (A) (A) (A) (A) (A) (A)
                 (A) (A) (A) (A) (A) (A) (A) (A) (A) (A) (A) (A)
                 (A) (A) (A) (A) (A) (A) (A) (A) (A) (A) (A)
       Virtual   (A) (A) (A) (A) (A) (A) (A) (A) (A) (A) (A) (A)
                 (A) (A) (A) (A) (A) (A) (A) (A) (A) (A) (A) (A)
                 (A) (A) (A) (A) (A) (A) (A) (A) (A) (A) (A) (A)
                 (A) (A) (A) (A) (A) (A) (A) (A) (A) (A) (A) (A)
                 (A) (A) (A) (A) (A) (A) (A) (A) (A) (A) (A) (A)
                 (A) (A) (A) (A) (A) (A) (A) (A) (A) (A) (A) (A)
                 (A) (A) (A) (A) (A) (A) (A) (A) (A) (A) (A) (A)
                 (A) (A) (A) (A) (A) (A) (A) (A) (A) (A) (A) (A)
                 (A) (A) (A) (A) (A) (A) (A) (A) (A) (A) (A) (A)
                 (A) (A) (A) (A) (A) (A) (A) (A) (A) (A) (A) (A)
                 (A) (A) (A) (A) (A) (A) (A) (A) (A) (A) (A) (A)
                 (A) (A) (A) (A) (A) (A) (A) (A) (A) (A) (A) (A)
                 (A) (A) (A) (A) (A) (A) (A) (A) (A) (A) (A) (A)
                 (A) (A) (A) (A) (A) (A) (A) (A) (A) (A) (A) (A)
                 (A) (A) (A) (A) (A) (A) (A) (A) (A) (A) (A) (A)
                 (A) (A) (A) (A) (A) (A) (A) (A) (A) (A) (A) (A)
                 (A) (A) (A) (A) (A) (A) (A) (A) (A) (A) (A) (A)
                 (A) (A) (A) (A) (A) (A) (A) (A) (A) (A) (A) (A)
                 (A) (A) (A) (A) (A) (A) (A) (A) (A) (A) (A) (A)
                 (A) (A) (A) (A) (A) (A) (A) (A) (A) (A) (A) (A)
                 (A) (A) (A) (A) (A) (A) (A) (A) (A) (A) (A) (A)
                 (A) (A) (A) (A) (A) (A) (A) (A) (A) (A) (A) (A)
                 (A) (A) (A) (A) (A) (A) (A) (A) (A) (A) (A) (A)
                 (A) (A) (A) (A) (A) (A) (A) (A) (A) (A) (A) (A)
                 (A) (A) (A) (A) (A) (A) (A) (A) (A) (A) (A) (A)
                 (A) (A) (A) (A) (A) (A) (A) (A) (A) (A) (A) (A)
                 (A) (A) (A) (A) (A) (A) (A) (A) (A) (A) (A) (A)
                 (A) (A) (A) (A) (A) (A) (A) (A) (A) (A) (A) (A)
                 (A) (A) (A) (A) (A) (A) (A) (A) (A) (A) (A) (A)
                 (A) (A) (A) (A) (A) (A) (A) (A) (A) (A) (A) (A)
                 (A) (A) (A) (A) (A) (A) (A) (A) (A) (A) (A) (A)
                 (A) (A) (A) (A) (A) (A) (A) (A) (A) (A) (A) (A)
                 (A) (A) (A) (A) (A) (A) (A) (A) (A) (A) (A) (A)
                 (A) (A) (A) (A) (A) (A) (A) (A) (A) (A) (A) (A)
                 (A) (A) (A) (A) (A) (A) (A) (A) (A) (A) (A) (A)
                 (A) (A) (A) (A) (A) (A) (A) (A) (A) (A) (A) (A)
                 (A) (A) (A) (A) (A) (A) (A) (A) (A) (A) (A) (A)
                 (A) (A) (A) (A) (A) (A) (A) (A) (A) (A) (A) (A)
                 (A) (A) (A) (A) (A) (A) (A) (A) (A) (A) (A) (A)
                 (A) (A) (A) (A) (A) (A) (A) (A) (A) (A) (A) (A)
                 (A) (A) (A) (A) (A) (A) (A) (A) (A) (A) (A) (A)
                 (A) (A) (A) (A) (A) (A) (A) (A) (A) (A) (A) (A)
                 (A) (A) (A) (A) (A) (A) (A) (A) (A) (A) (A) (A)
                 (A) (A) (A) (A) (A) (A) (A) (A) (A) (A) (A) (A)
                 (A) (A) (A) (A) (A) (A) (A) (A) (A) (A) (A) (A)
                 (A) (A) (A) (A) (A) (A) (A) (A) (A) (A) (A) (A)
                 (A) (A) (A) (A) (A) (A) (A) (A) (A) (A) (A) (A)
                 (A) (A) (A) (A) (A) (A) (A) (A) (A) (A) (A) (A)
                 (A) (A) (A) (A) (A) (A) (A) (A) (A) (A) (A) (A)
                 (A) (A) (A) (A) (A) (A) (A) (A) (A) (A) (A) (A)
                 (A) (A) (A) (A)
 The electronic state is 1-A.
 Alpha  occ. eigenvalues -- -482.90322 -88.92866 -61.86474 -56.38587 -56.38160
 Alpha  occ. eigenvalues --  -56.38107 -19.18718 -19.17192 -19.16984 -19.14868
 Alpha  occ. eigenvalues --  -19.12955 -19.12703 -19.12227 -19.10474 -14.40687
 Alpha  occ. eigenvalues --  -14.40338 -14.39881 -14.39497 -14.36115 -14.33524
 Alpha  occ. eigenvalues --  -14.31182 -14.30547 -10.31819 -10.30978 -10.30723
 Alpha  occ. eigenvalues --  -10.30407 -10.30352 -10.28269 -10.28263 -10.28123
 Alpha  occ. eigenvalues --  -10.26931 -10.26644 -10.25788 -10.25558 -10.25213
 Alpha  occ. eigenvalues --  -10.24960 -10.23823 -10.22924 -10.22046 -10.21683
 Alpha  occ. eigenvalues --  -10.20515 -10.20404 -10.20283 -10.20221 -10.20028
 Alpha  occ. eigenvalues --  -10.19927 -10.19645 -10.19252 -10.19076 -10.18954
 Alpha  occ. eigenvalues --   -8.57594  -7.99232  -6.53039  -6.51722  -6.51563
 Alpha  occ. eigenvalues --   -5.95758  -5.95308  -5.94692  -2.64600  -2.64259
 Alpha  occ. eigenvalues --   -2.64136  -2.63089  -2.63085  -1.07593  -1.06713
 Alpha  occ. eigenvalues --   -1.06530  -1.05546  -1.04294  -1.03837  -1.03646
 Alpha  occ. eigenvalues --   -1.03446  -1.00914  -0.98339  -0.96152  -0.94955
 Alpha  occ. eigenvalues --   -0.93164  -0.92433  -0.89432  -0.88104  -0.87347
 Alpha  occ. eigenvalues --   -0.86488  -0.85908  -0.82166  -0.80119  -0.79673
 Alpha  occ. eigenvalues --   -0.77981  -0.77305  -0.76378  -0.76321  -0.75364
 Alpha  occ. eigenvalues --   -0.73334  -0.72472  -0.71814  -0.69130  -0.67965
 Alpha  occ. eigenvalues --   -0.67810  -0.66838  -0.65990  -0.63776  -0.63546
 Alpha  occ. eigenvalues --   -0.63159  -0.62618  -0.62549  -0.61050  -0.60083
 Alpha  occ. eigenvalues --   -0.59153  -0.58679  -0.58395  -0.57804  -0.57587
 Alpha  occ. eigenvalues --   -0.56399  -0.56036  -0.55739  -0.54042  -0.53987
 Alpha  occ. eigenvalues --   -0.52202  -0.51811  -0.51103  -0.51023  -0.50390
 Alpha  occ. eigenvalues --   -0.49794  -0.49660  -0.48617  -0.48598  -0.48391
 Alpha  occ. eigenvalues --   -0.48156  -0.47993  -0.47713  -0.47418  -0.47057
 Alpha  occ. eigenvalues --   -0.46612  -0.46336  -0.46146  -0.46015  -0.45867
 Alpha  occ. eigenvalues --   -0.45326  -0.44947  -0.44854  -0.44535  -0.44275
 Alpha  occ. eigenvalues --   -0.43777  -0.43420  -0.43146  -0.42922  -0.42826
 Alpha  occ. eigenvalues --   -0.42490  -0.42247  -0.40936  -0.40912  -0.40730
 Alpha  occ. eigenvalues --   -0.40527  -0.40136  -0.40086  -0.39298  -0.39236
 Alpha  occ. eigenvalues --   -0.38380  -0.38285  -0.38018  -0.37027  -0.36858
 Alpha  occ. eigenvalues --   -0.36718  -0.36405  -0.36355  -0.36077  -0.35836
 Alpha  occ. eigenvalues --   -0.34619  -0.34434  -0.33499  -0.31174  -0.31048
 Alpha  occ. eigenvalues --   -0.30446  -0.30197  -0.29800  -0.28862  -0.28337
 Alpha  occ. eigenvalues --   -0.28291  -0.27405  -0.27225  -0.26779  -0.26649
 Alpha  occ. eigenvalues --   -0.26182  -0.25958  -0.25913  -0.24745  -0.24582
 Alpha  occ. eigenvalues --   -0.24404  -0.24278  -0.23675  -0.23236  -0.20577
 Alpha  occ. eigenvalues --   -0.18081
 Alpha virt. eigenvalues --   -0.11416  -0.06390  -0.02475  -0.01678  -0.01533
 Alpha virt. eigenvalues --   -0.01321  -0.00770  -0.00673  -0.00028   0.00063
 Alpha virt. eigenvalues --    0.00808   0.00878   0.02460   0.02772   0.03263
 Alpha virt. eigenvalues --    0.04498   0.05044   0.05706   0.07006   0.07731
 Alpha virt. eigenvalues --    0.07929   0.08325   0.08650   0.08840   0.08926
 Alpha virt. eigenvalues --    0.09455   0.09713   0.10223   0.10618   0.11313
 Alpha virt. eigenvalues --    0.11965   0.12064   0.12125   0.12300   0.12804
 Alpha virt. eigenvalues --    0.13059   0.13332   0.13575   0.13728   0.13964
 Alpha virt. eigenvalues --    0.14080   0.14705   0.14825   0.14985   0.15210
 Alpha virt. eigenvalues --    0.15607   0.16024   0.16306   0.16428   0.16695
 Alpha virt. eigenvalues --    0.17132   0.17456   0.17720   0.17840   0.18079
 Alpha virt. eigenvalues --    0.19154   0.19201   0.19554   0.19713   0.19999
 Alpha virt. eigenvalues --    0.20634   0.22371   0.22389   0.22679   0.23119
 Alpha virt. eigenvalues --    0.23175   0.23774   0.24207   0.24440   0.24996
 Alpha virt. eigenvalues --    0.25441   0.25833   0.26225   0.26348   0.26763
 Alpha virt. eigenvalues --    0.26986   0.27433   0.27889   0.28923   0.29784
 Alpha virt. eigenvalues --    0.30479   0.31193   0.31278   0.31962   0.32303
 Alpha virt. eigenvalues --    0.32654   0.33135   0.33289   0.34466   0.34623
 Alpha virt. eigenvalues --    0.36217   0.36486   0.36829   0.37644   0.38823
 Alpha virt. eigenvalues --    0.39664   0.40970   0.41457   0.41789   0.43088
 Alpha virt. eigenvalues --    0.43353   0.44604   0.44766   0.45549   0.46484
 Alpha virt. eigenvalues --    0.47128   0.47790   0.47916   0.48704   0.49171
 Alpha virt. eigenvalues --    0.49614   0.49887   0.50103   0.50357   0.50612
 Alpha virt. eigenvalues --    0.51093   0.51481   0.51701   0.51839   0.52387
 Alpha virt. eigenvalues --    0.52764   0.52978   0.53422   0.53582   0.53858
 Alpha virt. eigenvalues --    0.53996   0.54128   0.54451   0.55187   0.55355
 Alpha virt. eigenvalues --    0.55776   0.56053   0.56362   0.56623   0.57026
 Alpha virt. eigenvalues --    0.57119   0.57874   0.58025   0.58766   0.59220
 Alpha virt. eigenvalues --    0.59733   0.59803   0.60215   0.60543   0.60654
 Alpha virt. eigenvalues --    0.61069   0.61297   0.61673   0.61832   0.62290
 Alpha virt. eigenvalues --    0.62372   0.62569   0.63054   0.63268   0.63921
 Alpha virt. eigenvalues --    0.64381   0.64744   0.64885   0.65253   0.65595
 Alpha virt. eigenvalues --    0.65758   0.66673   0.67125   0.67564   0.67858
 Alpha virt. eigenvalues --    0.67973   0.68559   0.68673   0.69300   0.69558
 Alpha virt. eigenvalues --    0.70099   0.70300   0.70671   0.71640   0.71728
 Alpha virt. eigenvalues --    0.72216   0.72403   0.72511   0.72950   0.73111
 Alpha virt. eigenvalues --    0.73691   0.74218   0.75005   0.75430   0.76222
 Alpha virt. eigenvalues --    0.76764   0.77076   0.77518   0.77958   0.78396
 Alpha virt. eigenvalues --    0.78636   0.78938   0.79562   0.80063   0.80294
 Alpha virt. eigenvalues --    0.80627   0.81000   0.81150   0.81473   0.81511
 Alpha virt. eigenvalues --    0.82037   0.82267   0.82307   0.82641   0.82957
 Alpha virt. eigenvalues --    0.83305   0.83497   0.83819   0.84191   0.84279
 Alpha virt. eigenvalues --    0.84943   0.85173   0.85359   0.85852   0.86150
 Alpha virt. eigenvalues --    0.86435   0.86456   0.86656   0.87118   0.87380
 Alpha virt. eigenvalues --    0.87540   0.87910   0.88068   0.88793   0.89000
 Alpha virt. eigenvalues --    0.89344   0.89483   0.89755   0.90049   0.90283
 Alpha virt. eigenvalues --    0.90583   0.90831   0.90937   0.91448   0.91614
 Alpha virt. eigenvalues --    0.91784   0.92296   0.92468   0.92517   0.92914
 Alpha virt. eigenvalues --    0.93208   0.93505   0.93534   0.93805   0.94161
 Alpha virt. eigenvalues --    0.94770   0.95264   0.95763   0.96125   0.96427
 Alpha virt. eigenvalues --    0.96629   0.97301   0.97718   0.98454   0.98781
 Alpha virt. eigenvalues --    0.99463   1.00382   1.00554   1.01121   1.01524
 Alpha virt. eigenvalues --    1.01908   1.02305   1.02579   1.03219   1.03689
 Alpha virt. eigenvalues --    1.04213   1.04674   1.05038   1.05447   1.06704
 Alpha virt. eigenvalues --    1.07017   1.07241   1.07616   1.08613   1.08798
 Alpha virt. eigenvalues --    1.09985   1.10593   1.10907   1.11014   1.11468
 Alpha virt. eigenvalues --    1.11923   1.12636   1.12780   1.13646   1.14100
 Alpha virt. eigenvalues --    1.14663   1.14759   1.16207   1.17285   1.17725
 Alpha virt. eigenvalues --    1.17852   1.18660   1.19432   1.19731   1.20208
 Alpha virt. eigenvalues --    1.21921   1.22141   1.22619   1.22858   1.24253
 Alpha virt. eigenvalues --    1.24440   1.25675   1.26185   1.27600   1.28326
 Alpha virt. eigenvalues --    1.30267   1.31350   1.31700   1.31897   1.33622
 Alpha virt. eigenvalues --    1.34216   1.35254   1.35495   1.35990   1.36218
 Alpha virt. eigenvalues --    1.36423   1.38134   1.38276   1.38799   1.39834
 Alpha virt. eigenvalues --    1.41015   1.41328   1.42240   1.42522   1.42920
 Alpha virt. eigenvalues --    1.43407   1.43774   1.44099   1.44550   1.44957
 Alpha virt. eigenvalues --    1.45186   1.46060   1.46639   1.47477   1.47554
 Alpha virt. eigenvalues --    1.49491   1.49627   1.50616   1.50862   1.50937
 Alpha virt. eigenvalues --    1.51009   1.51806   1.53133   1.53351   1.55846
 Alpha virt. eigenvalues --    1.56522   1.56751   1.58130   1.58494   1.58692
 Alpha virt. eigenvalues --    1.59924   1.60778   1.61176   1.62423   1.63185
 Alpha virt. eigenvalues --    1.63567   1.64395   1.66530   1.66662   1.67123
 Alpha virt. eigenvalues --    1.67688   1.68480   1.69779   1.70336   1.70566
 Alpha virt. eigenvalues --    1.70829   1.73215   1.73930   1.74167   1.75533
 Alpha virt. eigenvalues --    1.76514   1.77094   1.77638   1.77914   1.78649
 Alpha virt. eigenvalues --    1.78716   1.79019   1.80203   1.80394   1.80916
 Alpha virt. eigenvalues --    1.81358   1.82081   1.82300   1.82644   1.82805
 Alpha virt. eigenvalues --    1.83386   1.83486   1.83962   1.84482   1.84649
 Alpha virt. eigenvalues --    1.85029   1.85743   1.86673   1.87052   1.87272
 Alpha virt. eigenvalues --    1.88425   1.88741   1.88924   1.89114   1.90302
 Alpha virt. eigenvalues --    1.90602   1.90801   1.90923   1.91905   1.92752
 Alpha virt. eigenvalues --    1.93172   1.94156   1.94398   1.94898   1.95140
 Alpha virt. eigenvalues --    1.96619   1.97042   1.97601   1.97786   1.97890
 Alpha virt. eigenvalues --    1.98069   1.99317   1.99381   2.00032   2.01188
 Alpha virt. eigenvalues --    2.01339   2.02315   2.02747   2.03244   2.04020
 Alpha virt. eigenvalues --    2.05133   2.05559   2.06556   2.06973   2.07022
 Alpha virt. eigenvalues --    2.07215   2.08144   2.08546   2.08682   2.09997
 Alpha virt. eigenvalues --    2.10746   2.11229   2.11886   2.12838   2.13074
 Alpha virt. eigenvalues --    2.13316   2.13597   2.14247   2.14890   2.16475
 Alpha virt. eigenvalues --    2.17241   2.17875   2.18300   2.19104   2.19389
 Alpha virt. eigenvalues --    2.20058   2.20423   2.21840   2.23038   2.24026
 Alpha virt. eigenvalues --    2.24379   2.25137   2.25398   2.26226   2.26618
 Alpha virt. eigenvalues --    2.26994   2.27811   2.28739   2.28849   2.29324
 Alpha virt. eigenvalues --    2.30151   2.31302   2.31611   2.32543   2.32947
 Alpha virt. eigenvalues --    2.33145   2.34308   2.34594   2.35649   2.36261
 Alpha virt. eigenvalues --    2.36486   2.37525   2.37754   2.38492   2.38935
 Alpha virt. eigenvalues --    2.39653   2.40826   2.41237   2.42337   2.43416
 Alpha virt. eigenvalues --    2.43871   2.44540   2.47153   2.47713   2.48261
 Alpha virt. eigenvalues --    2.48725   2.51377   2.52666   2.52895   2.52956
 Alpha virt. eigenvalues --    2.53903   2.54345   2.55475   2.55919   2.57353
 Alpha virt. eigenvalues --    2.58430   2.59472   2.60299   2.60302   2.60861
 Alpha virt. eigenvalues --    2.61137   2.61316   2.62785   2.62911   2.63599
 Alpha virt. eigenvalues --    2.64862   2.65548   2.66069   2.67066   2.68027
 Alpha virt. eigenvalues --    2.68427   2.69612   2.69709   2.70641   2.71327
 Alpha virt. eigenvalues --    2.72183   2.72710   2.74472   2.76143   2.76641
 Alpha virt. eigenvalues --    2.77333   2.77970   2.79384   2.79998   2.81728
 Alpha virt. eigenvalues --    2.82451   2.83518   2.83979   2.87036   2.88168
 Alpha virt. eigenvalues --    2.91008   2.91555   2.92327   2.92384   2.92889
 Alpha virt. eigenvalues --    2.94100   2.96980   2.97586   2.98569   2.99069
 Alpha virt. eigenvalues --    3.00398   3.00688   3.07411   3.08148   3.13152
 Alpha virt. eigenvalues --    3.13436   3.13935   3.14939   3.18692   3.22207
 Alpha virt. eigenvalues --    3.31021   3.44358   3.73956   3.74558   3.77495
 Alpha virt. eigenvalues --    3.81782   3.86092   3.92119   3.92898   3.95901
 Alpha virt. eigenvalues --    3.96892   3.98087   4.03623   4.04902   4.05733
 Alpha virt. eigenvalues --    4.06762   4.09085   4.11145   4.11283   4.11964
 Alpha virt. eigenvalues --    4.12376   4.16551   4.18055   4.18609   4.21043
 Alpha virt. eigenvalues --    4.22261   4.23822   4.24028   4.25684   4.26466
 Alpha virt. eigenvalues --    4.29982   4.30247   4.33497   4.36218   4.36982
 Alpha virt. eigenvalues --    4.40029   4.44496   4.47447   4.51514   4.52400
 Alpha virt. eigenvalues --    4.52949   4.53711   4.59377   4.64384   4.67712
 Alpha virt. eigenvalues --    4.68093   4.77661   8.65174  73.55483
          Condensed to atoms (all electrons):
 Mulliken charges:
               1
     1  N   -0.808604
     2  C    0.028764
     3  C    0.258117
     4  O   -0.416549
     5  C   -0.346837
     6  C    0.264122
     7  C   -0.029810
     8  N   -0.484595
     9  C    0.187331
    10  N   -0.556439
    11  H    0.314970
    12  H    0.313345
    13  H    0.158679
    14  H    0.121632
    15  H    0.153401
    16  H    0.189539
    17  H    0.160111
    18  H    0.156011
    19  H    0.334256
    20  N   -0.806392
    21  C   -0.170811
    22  C    0.593410
    23  O   -0.508116
    24  H    0.328948
    25  H    0.177960
    26  H    0.182850
    27  H    0.308669
    28  N   -0.650668
    29  C   -0.098782
    30  C    0.680819
    31  O   -0.542124
    32  C   -0.026164
    33  O   -0.640306
    34  H    0.220846
    35  H    0.152670
    36  H    0.200618
    37  H    0.305095
    38  H    0.386858
    39  N   -0.610061
    40  C    0.013638
    41  C    0.251429
    42  O   -0.366461
    43  C   -0.464328
    44  S   -0.112138
    45  H    0.168218
    46  H    0.143806
    47  H    0.204937
    48  H    0.226147
    49  H    0.125230
    50  H    0.345650
    51  C   -0.535571
    52  N   -0.590381
    53  O   -0.532534
    54  C    0.593690
    55  N   -0.585279
    56  O   -0.657861
    57  C   -0.032298
    58  O   -0.523746
    59  C   -0.375647
    60  C    0.175139
    61  C   -0.207684
    62  C   -0.155412
    63  C    0.315842
    64  C   -0.167242
    65  C   -0.191602
    66  C    0.625017
    67  C   -0.174772
    68  C   -0.176292
    69  C   -0.198671
    70  Br  -0.109364
    71  H    0.151495
    72  H    0.184294
    73  H    0.190152
    74  H    0.351690
    75  H    0.349245
    76  H    0.414132
    77  H    0.182505
    78  H    0.203726
    79  H    0.126519
    80  H    0.150924
    81  H    0.141783
    82  H    0.097484
    83  H    0.132117
    84  H    0.205139
    85  H    0.225612
    86  H    0.139773
    87  H    0.139314
    88  H    0.058753
    89  H    0.041120
 Sum of Mulliken charges =  -0.00000
 Mulliken charges with hydrogens summed into heavy atoms:
               1
     1  N   -0.180289
     2  C    0.187443
     3  C    0.379749
     4  O   -0.416549
     5  C   -0.003897
     6  C    0.264122
     7  C    0.130301
     8  N   -0.484595
     9  C    0.343343
    10  N   -0.222182
    20  N   -0.168775
    21  C    0.189999
    22  C    0.593410
    23  O   -0.508116
    28  N   -0.345573
    29  C    0.122065
    30  C    0.680819
    31  O   -0.542124
    32  C    0.327124
    33  O   -0.253448
    39  N   -0.264411
    40  C    0.181857
    41  C    0.395234
    42  O   -0.366461
    43  C   -0.033244
    44  S    0.013091
    51  C   -0.009630
    52  N   -0.238691
    53  O   -0.532534
    54  C    0.593690
    55  N   -0.236033
    56  O   -0.243729
    57  C    0.150207
    58  O   -0.523746
    59  C   -0.045402
    60  C    0.175139
    61  C   -0.056760
    62  C   -0.013629
    63  C    0.315842
    64  C   -0.069758
    65  C   -0.059485
    66  C    0.625017
    67  C    0.255978
    68  C    0.102795
    69  C   -0.098797
    70  Br  -0.109364
 Electronic spatial extent (au):  <R**2>=          44568.5203
 Charge=             -0.0000 electrons
 Dipole moment (field-independent basis, Debye):
    X=             -2.2723    Y=              1.6807    Z=             -2.5184  Tot=              3.7856
 Quadrupole moment (field-independent basis, Debye-Ang):
   XX=           -331.4512   YY=           -331.8248   ZZ=           -303.6781
   XY=            -29.8476   XZ=            -22.8247   YZ=             17.7713
 Traceless Quadrupole moment (field-independent basis, Debye-Ang):
   XX=             -9.1332   YY=             -9.5068   ZZ=             18.6399
   XY=            -29.8476   XZ=            -22.8247   YZ=             17.7713
 Octapole moment (field-independent basis, Debye-Ang**2):
  XXX=            -37.1655  YYY=              7.8057  ZZZ=            -32.7629  XYY=            314.0855
  XXY=            141.0381  XXZ=            -16.1356  XZZ=             29.5366  YZZ=            -15.3656
  YYZ=           -188.1756  XYZ=             42.3689
 Hexadecapole moment (field-independent basis, Debye-Ang**3):
 XXXX=         -30320.5897 YYYY=         -22490.2384 ZZZZ=          -3547.2907 XXXY=          -1103.1200
 XXXZ=           -536.8366 YYYX=          -1292.0034 YYYZ=           -718.3615 ZZZX=           -503.5035
 ZZZY=            162.5534 XXYY=          -9422.8852 XXZZ=          -6233.2766 YYZZ=          -4720.0515
 XXYZ=            507.4334 YYXZ=           -123.9504 ZZXY=            211.0758
 N-N= 6.789345005633D+03 E-N=-2.562594321085D+04  KE= 5.068157323757D+03
 No NMR shielding tensors so no spin-rotation constants.
 Leave Link  601 at Sun Mar 22 21:54:05 2020, MaxMem= 13421772800 cpu:              12.3 elap:               0.7
 (Enter /apps/gaussian/g16-c01-avx/g16/l9999.exe)
 Unable to Open any file for archive entry.
 1\1\GINC-CX1-141-15-2\SP\RB3LYP\6-31G(d)\C28H43Br1N8O8S1\JMF02\22-Mar-
 2020\0\\#p sp b3lyp/6-31g*\\lig_h + cluster-tetrad-h.pdb\\0,1\N,0,14.6
 95,-7.669,22.205\C,0,13.932,-7.048,23.317\C,0,12.69,-7.883,23.677\O,0,
 12.09,-7.588,24.723\C,0,13.695,-5.556,23.092\C,0,12.681,-5.185,22.062\
 C,0,12.753,-4.314,21.032\N,0,11.403,-5.688,22.058\C,0,10.72,-5.113,21.
 078\N,0,11.525,-4.262,20.448\H,0,15.026,-8.619,22.289\H,0,14.883,-7.14
 1,21.365\H,0,14.543,-7.07,24.22\H,0,12.351,-8.7,23.04\H,0,14.641,-5.17
 1,22.713\H,0,13.375,-5.125,24.041\H,0,13.636,-3.754,20.724\H,0,9.676,-
 5.305,20.831\H,0,11.268,-3.675,19.667\N,0,3.118,-4.185,19.835\C,0,2.83
 9,-5.537,19.343\C,0,3.354,-5.715,17.928\O,0,3.419,-6.886,17.507\H,0,3.
 296,-4.032,20.817\H,0,1.76,-5.691,19.343\H,0,3.326,-6.262,19.995\H,0,3
 .132,-3.406,19.192\N,0,3.697,-4.622,17.237\C,0,4.114,-4.645,15.798\C,0
 ,5.593,-5.003,15.681\O,0,6.021,-5.3,14.561\C,0,3.84,-3.348,15.071\O,0,
 4.607,-2.264,15.598\H,0,3.504,-5.409,15.316\H,0,2.785,-3.107,15.201\H,
 0,4.088,-3.476,14.017\H,0,3.674,-3.731,17.712\H,0,4.818,-2.438,16.518\
 N,0,6.356,-4.995,16.773\C,0,7.791,-5.356,16.725\C,0,7.977,-6.733,16.06
 3\O,0,7.127,-7.63,16.218\C,0,8.434,-5.236,18.1\S,0,8.311,-3.555,18.782
 \H,0,8.322,-4.643,16.095\H,0,8.86,-6.925,15.453\H,0,9.493,-5.473,17.99
 2\H,0,7.937,-5.927,18.781\H,0,8.634,-2.663,17.835\H,0,5.944,-4.736,17.
 658\C,0,7.712,4.976,22.568\N,0,7.991,2.594,22.44\O,0,6.307,3.385,23.66
 4\C,0,7.281,3.596,22.95\N,0,9.096,-0.844,22.611\O,0,5.702,0.784,16.93\
 C,0,7.866,1.223,22.914\O,0,9.866,1.017,21.611\C,0,6.526,0.583,22.515\C
 ,0,6.273,0.626,21.028\C,0,5.386,1.538,20.475\C,0,5.174,1.599,19.108\C,
 0,5.863,0.737,18.273\C,0,6.755,-0.172,18.802\C,0,6.951,-0.224,20.169\C
 ,0,9.043,0.453,22.33\C,0,9.98,-1.728,21.882\C,0,11.351,-1.592,22.376\C
 ,0,12.458,-1.642,22.833\Br,0,14.18,-1.925,23.66\H,0,8.693,4.932,22.095
 \H,0,6.992,5.402,21.87\H,0,7.767,5.6,23.46\H,0,8.643,2.792,21.694\H,0,
 8.511,-1.219,23.344\H,0,5.313,-0.039,16.625\H,0,7.88,1.201,24.004\H,0,
 5.734,1.156,22.997\H,0,6.527,-0.458,22.838\H,0,4.845,2.221,21.13\H,0,4
 .47,2.32,18.693\H,0,7.303,-0.847,18.145\H,0,7.654,-0.949,20.58\H,0,9.9
 55,-1.463,20.825\H,0,9.649,-2.758,22.014\H,0,10.968,-1.771,23.381\H,0,
 11.72,-1.28,21.399\H,0,12.012,-1.669,23.827\H,0,12.91,-1.502,21.851\\V
 ersion=ES64L-G16RevC.01\State=1-A\HF=-5101.9137458\RMSD=6.398e-09\Dipo
 le=-0.3056387,0.9527997,-1.1031741\Quadrupole=25.2041216,-13.30353,-11
 .9005916,-14.0752063,-19.6132596,-6.2705265\PG=C01 [X(C28H43Br1N8O8S1)
 ]\\@
 The archive entry for this job was punched.


 A MATHEMATICIAN IS A MACHINE FOR TURNING COFFEE INTO THEOREMS.
     -- QUOTED BY PAUL ERDOS
 Job cpu time:       0 days  0 hours 51 minutes  4.5 seconds.
 Elapsed time:       0 days  0 hours  2 minutes 33.8 seconds.
 File lengths (MBytes):  RWF=    345 Int=      0 D2E=      0 Chk=     38 Scr=      1
 Normal termination of Gaussian 16 at Sun Mar 22 21:54:06 2020.
