 Entering Gaussian System, Link 0=g03
 Input=cluster-tetrad-h.com
 Output=cluster-tetrad-h.log
 Initial command:
 /apps/gaussian/g16-c01-avx/g16/l1.exe "/tmp/pbs.1230301.pbs/Gau-13874.inp" -scrdir="/tmp/pbs.1230301.pbs/"
 Entering Link 1 = /apps/gaussian/g16-c01-avx/g16/l1.exe PID=     13875.
  
 Copyright (c) 1988-2019, Gaussian, Inc.  All Rights Reserved.
  
 This is part of the Gaussian(R) 16 program.  It is based on
 the Gaussian(R) 09 system (copyright 2009, Gaussian, Inc.),
 the Gaussian(R) 03 system (copyright 2003, Gaussian, Inc.),
 the Gaussian(R) 98 system (copyright 1998, Gaussian, Inc.),
 the Gaussian(R) 94 system (copyright 1995, Gaussian, Inc.),
 the Gaussian 92(TM) system (copyright 1992, Gaussian, Inc.),
 the Gaussian 90(TM) system (copyright 1990, Gaussian, Inc.),
 the Gaussian 88(TM) system (copyright 1988, Gaussian, Inc.),
 the Gaussian 86(TM) system (copyright 1986, Carnegie Mellon
 University), and the Gaussian 82(TM) system (copyright 1983,
 Carnegie Mellon University). Gaussian is a federally registered
 trademark of Gaussian, Inc.
  
 This software contains proprietary and confidential information,
 including trade secrets, belonging to Gaussian, Inc.
  
 This software is provided under written license and may be
 used, copied, transmitted, or stored only in accord with that
 written license.
  
 The following legend is applicable only to US Government
 contracts under FAR:
  
                    RESTRICTED RIGHTS LEGEND
  
 Use, reproduction and disclosure by the US Government is
 subject to restrictions as set forth in subparagraphs (a)
 and (c) of the Commercial Computer Software - Restricted
 Rights clause in FAR 52.227-19.
  
 Gaussian, Inc.
 340 Quinnipiac St., Bldg. 40, Wallingford CT 06492
  
  
 ---------------------------------------------------------------
 Warning -- This program may not be used in any manner that
 competes with the business of Gaussian, Inc. or will provide
 assistance to any competitor of Gaussian, Inc.  The licensee
 of this program is prohibited from giving any competitor of
 Gaussian, Inc. access to this program.  By using this program,
 the user acknowledges that Gaussian, Inc. is engaged in the
 business of creating and licensing software in the field of
 computational chemistry and represents and warrants to the
 licensee that it is not a competitor of Gaussian, Inc. and that
 it will not use this program in any manner prohibited above.
 ---------------------------------------------------------------
  

 Cite this work as:
 Gaussian 16, Revision C.01,
 M. J. Frisch, G. W. Trucks, H. B. Schlegel, G. E. Scuseria, 
 M. A. Robb, J. R. Cheeseman, G. Scalmani, V. Barone, 
 G. A. Petersson, H. Nakatsuji, X. Li, M. Caricato, A. V. Marenich, 
 J. Bloino, B. G. Janesko, R. Gomperts, B. Mennucci, H. P. Hratchian, 
 J. V. Ortiz, A. F. Izmaylov, J. L. Sonnenberg, D. Williams-Young, 
 F. Ding, F. Lipparini, F. Egidi, J. Goings, B. Peng, A. Petrone, 
 T. Henderson, D. Ranasinghe, V. G. Zakrzewski, J. Gao, N. Rega, 
 G. Zheng, W. Liang, M. Hada, M. Ehara, K. Toyota, R. Fukuda, 
 J. Hasegawa, M. Ishida, T. Nakajima, Y. Honda, O. Kitao, H. Nakai, 
 T. Vreven, K. Throssell, J. A. Montgomery, Jr., J. E. Peralta, 
 F. Ogliaro, M. J. Bearpark, J. J. Heyd, E. N. Brothers, K. N. Kudin, 
 V. N. Staroverov, T. A. Keith, R. Kobayashi, J. Normand, 
 K. Raghavachari, A. P. Rendell, J. C. Burant, S. S. Iyengar, 
 J. Tomasi, M. Cossi, J. M. Millam, M. Klene, C. Adamo, R. Cammi, 
 J. W. Ochterski, R. L. Martin, K. Morokuma, O. Farkas, 
 J. B. Foresman, and D. J. Fox, Gaussian, Inc., Wallingford CT, 2019.
 
 ******************************************
 Gaussian 16:  ES64L-G16RevC.01  3-Jul-2019
                21-Mar-2020 
 ******************************************
 %mem=100GB
 %nprocshared=20
 Will use up to   20 processors via shared memory.
 ------------------
 #p sp b3lyp/6-31g*
 ------------------
 1/38=1,172=1/1;
 2/12=2,17=6,18=5,40=1/2;
 3/5=1,6=6,7=1,11=2,25=1,30=1,74=-5/1,2,3;
 4//1;
 5/5=2,38=5/2;
 6/7=2,8=2,9=2,10=2,28=1/1;
 99/5=1,9=1/99;
 Leave Link    1 at Sat Mar 21 21:35:47 2020, MaxMem= 13421772800 cpu:               0.9 elap:               0.4
 (Enter /apps/gaussian/g16-c01-avx/g16/l101.exe)
 --------------------
 cluster-tetrad-h.pdb
 --------------------
 Symbolic Z-matrix:
 Charge =  0 Multiplicity = 1
 N                     14.695   -7.669     22.205 
 N                     14.695   -7.669     22.205 
 N                     14.695   -7.669     22.205 
 N                     14.695   -7.669     22.205 
 C                     13.932   -7.048     23.317 
 C                     13.932   -7.048     23.317 
 C                     13.932   -7.048     23.317 
 C                     13.932   -7.048     23.317 
 C                     12.69    -7.883     23.677 
 C                     12.69    -7.883     23.677 
 C                     12.69    -7.883     23.677 
 C                     12.69    -7.883     23.677 
 O                     12.09    -7.588     24.723 
 O                     12.09    -7.588     24.723 
 O                     12.09    -7.588     24.723 
 O                     12.09    -7.588     24.723 
 C                     13.695   -5.556     23.092 
 C                     13.695   -5.556     23.092 
 C                     13.695   -5.556     23.092 
 C                     13.695   -5.556     23.092 
 C                     12.681   -5.185     22.062 
 C                     12.681   -5.185     22.062 
 C                     12.681   -5.185     22.062 
 C                     12.681   -5.185     22.062 
 C                     12.753   -4.314     21.032 
 C                     12.753   -4.314     21.032 
 C                     12.753   -4.314     21.032 
 C                     12.753   -4.314     21.032 
 N                     11.403   -5.688     22.058 
 N                     11.403   -5.688     22.058 
 N                     11.403   -5.688     22.058 
 N                     11.403   -5.688     22.058 
 C                     10.72    -5.113     21.078 
 C                     10.72    -5.113     21.078 
 C                     10.72    -5.113     21.078 
 C                     10.72    -5.113     21.078 
 N                     11.525   -4.262     20.448 
 N                     11.525   -4.262     20.448 
 N                     11.525   -4.262     20.448 
 N                     11.525   -4.262     20.448 
 H                     15.026   -8.619     22.289 
 H                     15.026   -8.619     22.289 
 H                     14.883   -7.141     21.365 
 H                     14.883   -7.141     21.365 
 H                     14.543   -7.07      24.22 
 H                     14.543   -7.07      24.22 
 H                     12.351   -8.7       23.04 
 H                     12.351   -8.7       23.04 
 H                     14.641   -5.171     22.713 
 H                     14.641   -5.171     22.713 
 H                     13.375   -5.125     24.041 
 H                     13.375   -5.125     24.041 
 H                     13.636   -3.754     20.724 
 H                     13.636   -3.754     20.724 
 H                     9.676    -5.305     20.831 
 H                     9.676    -5.305     20.831 
 H                     11.268   -3.675     19.667 
 H                     11.268   -3.675     19.667 
 H                     15.026   -8.619     22.289 
 H                     14.883   -7.141     21.365 
 H                     14.543   -7.07      24.22 
 H                     12.351   -8.7       23.04 
 H                     14.641   -5.171     22.713 
 H                     13.375   -5.125     24.041 
 H                     13.636   -3.754     20.724 
 H                     9.676    -5.305     20.831 
 H                     11.268   -3.675     19.667 
 H                     15.026   -8.619     22.289 
 H                     14.883   -7.141     21.365 
 H                     14.543   -7.07      24.22 
 H                     12.351   -8.7       23.04 
 H                     14.641   -5.171     22.713 
 H                     13.375   -5.125     24.041 
 H                     13.636   -3.754     20.724 
 H                     9.676    -5.305     20.831 
 H                     11.268   -3.675     19.667 
 N                     3.118    -4.185     19.835 
 C                     2.839    -5.537     19.343 
 C                     3.354    -5.715     17.928 
 O                     3.419    -6.886     17.507 
 H                     3.296    -4.032     20.817 
 H                     1.76     -5.691     19.343 
 H                     3.326    -6.262     19.995 
 H                     3.132    -3.406     19.192 
 N                     3.697    -4.622     17.237 
 N                     3.697    -4.622     17.237 
 C                     4.114    -4.645     15.798 
 C                     4.114    -4.645     15.798 
 C                     5.593    -5.003     15.681 
 C                     5.593    -5.003     15.681 
 O                     6.021    -5.3       14.561 
 O                     6.021    -5.3       14.561 
 C                     3.84     -3.348     15.071 
 C                     3.84     -3.348     15.071 
 O                     4.607    -2.264     15.598 
 O                     4.607    -2.264     15.598 
 H                     3.711    -3.754     17.753 
 H                     3.504    -5.409     15.316 
 H                     2.785    -3.107     15.201 
 H                     4.088    -3.476     14.017 
 H                     4.818    -2.438     16.518 
 H                     3.674    -3.731     17.712 
 H                     3.402    -5.475     17.691 
 H                     3.504    -5.409     15.316 
 H                     2.785    -3.107     15.201 
 H                     4.088    -3.476     14.017 
 H                     4.818    -2.438     16.518 
 N                     6.356    -4.995     16.773 
 N                     6.356    -4.995     16.773 
 N                     6.356    -4.995     16.773 
 N                     6.356    -4.995     16.773 
 C                     7.791    -5.356     16.725 
 C                     7.791    -5.356     16.725 
 C                     7.791    -5.356     16.725 
 C                     7.791    -5.356     16.725 
 C                     7.977    -6.733     16.063 
 C                     7.977    -6.733     16.063 
 C                     7.977    -6.733     16.063 
 C                     7.977    -6.733     16.063 
 O                     7.127    -7.63      16.218 
 O                     7.127    -7.63      16.218 
 O                     7.127    -7.63      16.218 
 O                     7.127    -7.63      16.218 
 C                     8.434    -5.236     18.1 
 C                     8.434    -5.236     18.1 
 C                     8.434    -5.236     18.1 
 C                     8.434    -5.236     18.1 
 S                     8.311    -3.555     18.782 
 S                     8.311    -3.555     18.782 
 S                     8.311    -3.555     18.782 
 S                     8.311    -3.555     18.782 
 H                     8.322    -4.643     16.095 
 H                     8.322    -4.643     16.095 
 H                     8.86     -6.925     15.453 
 H                     8.86     -6.925     15.453 
 H                     9.493    -5.473     17.992 
 H                     9.493    -5.473     17.992 
 H                     7.937    -5.927     18.781 
 H                     7.937    -5.927     18.781 
 H                     8.634    -2.663     17.835 
 H                     8.634    -2.663     17.835 
 H                     5.944    -4.736     17.658 
 H                     5.944    -4.736     17.658 
 H                     5.859    -5.016     17.652 
 H                     5.874    -4.728     15.927 
 H                     8.322    -4.643     16.095 
 H                     8.86     -6.925     15.453 
 H                     9.493    -5.473     17.992 
 H                     7.937    -5.927     18.781 
 H                     8.634    -2.663     17.835 
 H                     5.944    -4.736     17.658 
 H                     8.322    -4.643     16.095 
 H                     8.86     -6.925     15.453 
 H                     9.493    -5.473     17.992 
 H                     7.937    -5.927     18.781 
 H                     5.796    -5.008     15.932 
 H                     8.634    -2.663     17.835 
 O                     21.748    18.789   -19.293 
 O                     21.748    18.789   -19.293 
 H                     20.822    19.037   -19.334 
 H                     21.693    18.474   -18.388 
 H                     22.064    18.581   -20.175 
 H                     21.183    19.558   -19.4 
 O                     15.953    24.505    8.285 
 H                     16.198    25.417    8.459 
 H                     15.84     24.04     9.117 
 O                     20.083    14.117   -18.598 
 H                     19.708    13.938   -19.463 
 H                     20.322    13.289   -18.175 
 O                    -3.046     21.507   -9.915 
 O                    -3.046     21.507   -9.915 
 H                    -3.484     22.123   -9.324 
 H                    -2.965     21.901   -10.787 
 H                    -2.909     22.425   -10.159 
 H                    -3.666     21.459   -9.184 
 
 ITRead=  0  0  0  0  0  0  0  0  0  0  0  0  0  0  0  0  0  0  0  0
 ITRead=  0  0  0  0  0  0  0  0  0  0  0  0  0  0  0  0  0  0  0  0
 ITRead=  0  0  0  0  0  0  0  0  0  0  0  0  0  0  0  0  0  0  0  0
 ITRead=  0  0  0  0  0  0  0  0  0  0  0  0  0  0  0  0  0  0  0  0
 ITRead=  0  0  0  0  0  0  0  0  0  0  0  0  0  0  0  0  0  0  0  0
 ITRead=  0  0  0  0  0  0  0  0  0  0  0  0  0  0  0  0  0  0  0  0
 ITRead=  0  0  0  0  0  0  0  0  0  0  0  0  0  0  0  0  0  0  0  0
 ITRead=  0  0  0  0  0  0  0  0  0  0  0  0  0  0  0  0  0  0  0  0
 ITRead=  0  0  0  0  0  0  0  0  0  0  0  0  0  0  0
 MicOpt= -1 -1 -1 -1 -1 -1 -1 -1 -1 -1 -1 -1 -1 -1 -1 -1 -1 -1 -1 -1
 MicOpt= -1 -1 -1 -1 -1 -1 -1 -1 -1 -1 -1 -1 -1 -1 -1 -1 -1 -1 -1 -1
 MicOpt= -1 -1 -1 -1 -1 -1 -1 -1 -1 -1 -1 -1 -1 -1 -1 -1 -1 -1 -1 -1
 MicOpt= -1 -1 -1 -1 -1 -1 -1 -1 -1 -1 -1 -1 -1 -1 -1 -1 -1 -1 -1 -1
 MicOpt= -1 -1 -1 -1 -1 -1 -1 -1 -1 -1 -1 -1 -1 -1 -1 -1 -1 -1 -1 -1
 MicOpt= -1 -1 -1 -1 -1 -1 -1 -1 -1 -1 -1 -1 -1 -1 -1 -1 -1 -1 -1 -1
 MicOpt= -1 -1 -1 -1 -1 -1 -1 -1 -1 -1 -1 -1 -1 -1 -1 -1 -1 -1 -1 -1
 MicOpt= -1 -1 -1 -1 -1 -1 -1 -1 -1 -1 -1 -1 -1 -1 -1 -1 -1 -1 -1 -1
 MicOpt= -1 -1 -1 -1 -1 -1 -1 -1 -1 -1 -1 -1 -1 -1 -1
 NAtoms=    175 NQM=      175 NQMF=       0 NMMI=      0 NMMIF=      0
                NMic=       0 NMicF=      0.
                    Isotopes and Nuclear Properties:
 (Nuclear quadrupole moments (NQMom) in fm**2, nuclear magnetic moments (NMagM)
  in nuclear magnetons)

  Atom         1           2           3           4           5           6           7           8           9          10
 IAtWgt=          14          14          14          14          12          12          12          12          12          12
 AtmWgt=  14.0030740  14.0030740  14.0030740  14.0030740  12.0000000  12.0000000  12.0000000  12.0000000  12.0000000  12.0000000
 NucSpn=           2           2           2           2           0           0           0           0           0           0
 AtZEff=  -0.0000000  -0.0000000  -0.0000000  -0.0000000  -0.0000000  -0.0000000  -0.0000000  -0.0000000  -0.0000000  -0.0000000
 NQMom=    2.0440000   2.0440000   2.0440000   2.0440000   0.0000000   0.0000000   0.0000000   0.0000000   0.0000000   0.0000000
 NMagM=    0.4037610   0.4037610   0.4037610   0.4037610   0.0000000   0.0000000   0.0000000   0.0000000   0.0000000   0.0000000
 AtZNuc=   7.0000000   7.0000000   7.0000000   7.0000000   6.0000000   6.0000000   6.0000000   6.0000000   6.0000000   6.0000000

  Atom        11          12          13          14          15          16          17          18          19          20
 IAtWgt=          12          12          16          16          16          16          12          12          12          12
 AtmWgt=  12.0000000  12.0000000  15.9949146  15.9949146  15.9949146  15.9949146  12.0000000  12.0000000  12.0000000  12.0000000
 NucSpn=           0           0           0           0           0           0           0           0           0           0
 AtZEff=  -0.0000000  -0.0000000  -0.0000000  -0.0000000  -0.0000000  -0.0000000  -0.0000000  -0.0000000  -0.0000000  -0.0000000
 NQMom=    0.0000000   0.0000000   0.0000000   0.0000000   0.0000000   0.0000000   0.0000000   0.0000000   0.0000000   0.0000000
 NMagM=    0.0000000   0.0000000   0.0000000   0.0000000   0.0000000   0.0000000   0.0000000   0.0000000   0.0000000   0.0000000
 AtZNuc=   6.0000000   6.0000000   8.0000000   8.0000000   8.0000000   8.0000000   6.0000000   6.0000000   6.0000000   6.0000000

  Atom        21          22          23          24          25          26          27          28          29          30
 IAtWgt=          12          12          12          12          12          12          12          12          14          14
 AtmWgt=  12.0000000  12.0000000  12.0000000  12.0000000  12.0000000  12.0000000  12.0000000  12.0000000  14.0030740  14.0030740
 NucSpn=           0           0           0           0           0           0           0           0           2           2
 AtZEff=  -0.0000000  -0.0000000  -0.0000000  -0.0000000  -0.0000000  -0.0000000  -0.0000000  -0.0000000  -0.0000000  -0.0000000
 NQMom=    0.0000000   0.0000000   0.0000000   0.0000000   0.0000000   0.0000000   0.0000000   0.0000000   2.0440000   2.0440000
 NMagM=    0.0000000   0.0000000   0.0000000   0.0000000   0.0000000   0.0000000   0.0000000   0.0000000   0.4037610   0.4037610
 AtZNuc=   6.0000000   6.0000000   6.0000000   6.0000000   6.0000000   6.0000000   6.0000000   6.0000000   7.0000000   7.0000000

  Atom        31          32          33          34          35          36          37          38          39          40
 IAtWgt=          14          14          12          12          12          12          14          14          14          14
 AtmWgt=  14.0030740  14.0030740  12.0000000  12.0000000  12.0000000  12.0000000  14.0030740  14.0030740  14.0030740  14.0030740
 NucSpn=           2           2           0           0           0           0           2           2           2           2
 AtZEff=  -0.0000000  -0.0000000  -0.0000000  -0.0000000  -0.0000000  -0.0000000  -0.0000000  -0.0000000  -0.0000000  -0.0000000
 NQMom=    2.0440000   2.0440000   0.0000000   0.0000000   0.0000000   0.0000000   2.0440000   2.0440000   2.0440000   2.0440000
 NMagM=    0.4037610   0.4037610   0.0000000   0.0000000   0.0000000   0.0000000   0.4037610   0.4037610   0.4037610   0.4037610
 AtZNuc=   7.0000000   7.0000000   6.0000000   6.0000000   6.0000000   6.0000000   7.0000000   7.0000000   7.0000000   7.0000000

  Atom        41          42          43          44          45          46          47          48          49          50
 IAtWgt=           1           1           1           1           1           1           1           1           1           1
 AtmWgt=   1.0078250   1.0078250   1.0078250   1.0078250   1.0078250   1.0078250   1.0078250   1.0078250   1.0078250   1.0078250
 NucSpn=           1           1           1           1           1           1           1           1           1           1
 AtZEff=  -0.0000000  -0.0000000  -0.0000000  -0.0000000  -0.0000000  -0.0000000  -0.0000000  -0.0000000  -0.0000000  -0.0000000
 NQMom=    0.0000000   0.0000000   0.0000000   0.0000000   0.0000000   0.0000000   0.0000000   0.0000000   0.0000000   0.0000000
 NMagM=    2.7928460   2.7928460   2.7928460   2.7928460   2.7928460   2.7928460   2.7928460   2.7928460   2.7928460   2.7928460
 AtZNuc=   1.0000000   1.0000000   1.0000000   1.0000000   1.0000000   1.0000000   1.0000000   1.0000000   1.0000000   1.0000000

  Atom        51          52          53          54          55          56          57          58          59          60
 IAtWgt=           1           1           1           1           1           1           1           1           1           1
 AtmWgt=   1.0078250   1.0078250   1.0078250   1.0078250   1.0078250   1.0078250   1.0078250   1.0078250   1.0078250   1.0078250
 NucSpn=           1           1           1           1           1           1           1           1           1           1
 AtZEff=  -0.0000000  -0.0000000  -0.0000000  -0.0000000  -0.0000000  -0.0000000  -0.0000000  -0.0000000  -0.0000000  -0.0000000
 NQMom=    0.0000000   0.0000000   0.0000000   0.0000000   0.0000000   0.0000000   0.0000000   0.0000000   0.0000000   0.0000000
 NMagM=    2.7928460   2.7928460   2.7928460   2.7928460   2.7928460   2.7928460   2.7928460   2.7928460   2.7928460   2.7928460
 AtZNuc=   1.0000000   1.0000000   1.0000000   1.0000000   1.0000000   1.0000000   1.0000000   1.0000000   1.0000000   1.0000000

  Atom        61          62          63          64          65          66          67          68          69          70
 IAtWgt=           1           1           1           1           1           1           1           1           1           1
 AtmWgt=   1.0078250   1.0078250   1.0078250   1.0078250   1.0078250   1.0078250   1.0078250   1.0078250   1.0078250   1.0078250
 NucSpn=           1           1           1           1           1           1           1           1           1           1
 AtZEff=  -0.0000000  -0.0000000  -0.0000000  -0.0000000  -0.0000000  -0.0000000  -0.0000000  -0.0000000  -0.0000000  -0.0000000
 NQMom=    0.0000000   0.0000000   0.0000000   0.0000000   0.0000000   0.0000000   0.0000000   0.0000000   0.0000000   0.0000000
 NMagM=    2.7928460   2.7928460   2.7928460   2.7928460   2.7928460   2.7928460   2.7928460   2.7928460   2.7928460   2.7928460
 AtZNuc=   1.0000000   1.0000000   1.0000000   1.0000000   1.0000000   1.0000000   1.0000000   1.0000000   1.0000000   1.0000000

  Atom        71          72          73          74          75          76          77          78          79          80
 IAtWgt=           1           1           1           1           1           1          14          12          12          16
 AtmWgt=   1.0078250   1.0078250   1.0078250   1.0078250   1.0078250   1.0078250  14.0030740  12.0000000  12.0000000  15.9949146
 NucSpn=           1           1           1           1           1           1           2           0           0           0
 AtZEff=  -0.0000000  -0.0000000  -0.0000000  -0.0000000  -0.0000000  -0.0000000  -0.0000000  -0.0000000  -0.0000000  -0.0000000
 NQMom=    0.0000000   0.0000000   0.0000000   0.0000000   0.0000000   0.0000000   2.0440000   0.0000000   0.0000000   0.0000000
 NMagM=    2.7928460   2.7928460   2.7928460   2.7928460   2.7928460   2.7928460   0.4037610   0.0000000   0.0000000   0.0000000
 AtZNuc=   1.0000000   1.0000000   1.0000000   1.0000000   1.0000000   1.0000000   7.0000000   6.0000000   6.0000000   8.0000000

  Atom        81          82          83          84          85          86          87          88          89          90
 IAtWgt=           1           1           1           1          14          14          12          12          12          12
 AtmWgt=   1.0078250   1.0078250   1.0078250   1.0078250  14.0030740  14.0030740  12.0000000  12.0000000  12.0000000  12.0000000
 NucSpn=           1           1           1           1           2           2           0           0           0           0
 AtZEff=  -0.0000000  -0.0000000  -0.0000000  -0.0000000  -0.0000000  -0.0000000  -0.0000000  -0.0000000  -0.0000000  -0.0000000
 NQMom=    0.0000000   0.0000000   0.0000000   0.0000000   2.0440000   2.0440000   0.0000000   0.0000000   0.0000000   0.0000000
 NMagM=    2.7928460   2.7928460   2.7928460   2.7928460   0.4037610   0.4037610   0.0000000   0.0000000   0.0000000   0.0000000
 AtZNuc=   1.0000000   1.0000000   1.0000000   1.0000000   7.0000000   7.0000000   6.0000000   6.0000000   6.0000000   6.0000000

  Atom        91          92          93          94          95          96          97          98          99         100
 IAtWgt=          16          16          12          12          16          16           1           1           1           1
 AtmWgt=  15.9949146  15.9949146  12.0000000  12.0000000  15.9949146  15.9949146   1.0078250   1.0078250   1.0078250   1.0078250
 NucSpn=           0           0           0           0           0           0           1           1           1           1
 AtZEff=  -0.0000000  -0.0000000  -0.0000000  -0.0000000  -0.0000000  -0.0000000  -0.0000000  -0.0000000  -0.0000000  -0.0000000
 NQMom=    0.0000000   0.0000000   0.0000000   0.0000000   0.0000000   0.0000000   0.0000000   0.0000000   0.0000000   0.0000000
 NMagM=    0.0000000   0.0000000   0.0000000   0.0000000   0.0000000   0.0000000   2.7928460   2.7928460   2.7928460   2.7928460
 AtZNuc=   8.0000000   8.0000000   6.0000000   6.0000000   8.0000000   8.0000000   1.0000000   1.0000000   1.0000000   1.0000000

  Atom       101         102         103         104         105         106         107         108         109         110
 IAtWgt=           1           1           1           1           1           1           1          14          14          14
 AtmWgt=   1.0078250   1.0078250   1.0078250   1.0078250   1.0078250   1.0078250   1.0078250  14.0030740  14.0030740  14.0030740
 NucSpn=           1           1           1           1           1           1           1           2           2           2
 AtZEff=  -0.0000000  -0.0000000  -0.0000000  -0.0000000  -0.0000000  -0.0000000  -0.0000000  -0.0000000  -0.0000000  -0.0000000
 NQMom=    0.0000000   0.0000000   0.0000000   0.0000000   0.0000000   0.0000000   0.0000000   2.0440000   2.0440000   2.0440000
 NMagM=    2.7928460   2.7928460   2.7928460   2.7928460   2.7928460   2.7928460   2.7928460   0.4037610   0.4037610   0.4037610
 AtZNuc=   1.0000000   1.0000000   1.0000000   1.0000000   1.0000000   1.0000000   1.0000000   7.0000000   7.0000000   7.0000000

  Atom       111         112         113         114         115         116         117         118         119         120
 IAtWgt=          14          12          12          12          12          12          12          12          12          16
 AtmWgt=  14.0030740  12.0000000  12.0000000  12.0000000  12.0000000  12.0000000  12.0000000  12.0000000  12.0000000  15.9949146
 NucSpn=           2           0           0           0           0           0           0           0           0           0
 AtZEff=  -0.0000000  -0.0000000  -0.0000000  -0.0000000  -0.0000000  -0.0000000  -0.0000000  -0.0000000  -0.0000000  -0.0000000
 NQMom=    2.0440000   0.0000000   0.0000000   0.0000000   0.0000000   0.0000000   0.0000000   0.0000000   0.0000000   0.0000000
 NMagM=    0.4037610   0.0000000   0.0000000   0.0000000   0.0000000   0.0000000   0.0000000   0.0000000   0.0000000   0.0000000
 AtZNuc=   7.0000000   6.0000000   6.0000000   6.0000000   6.0000000   6.0000000   6.0000000   6.0000000   6.0000000   8.0000000

  Atom       121         122         123         124         125         126         127         128         129         130
 IAtWgt=          16          16          16          12          12          12          12          32          32          32
 AtmWgt=  15.9949146  15.9949146  15.9949146  12.0000000  12.0000000  12.0000000  12.0000000  31.9720718  31.9720718  31.9720718
 NucSpn=           0           0           0           0           0           0           0           0           0           0
 AtZEff=  -0.0000000  -0.0000000  -0.0000000  -0.0000000  -0.0000000  -0.0000000  -0.0000000  -0.0000000  -0.0000000  -0.0000000
 NQMom=    0.0000000   0.0000000   0.0000000   0.0000000   0.0000000   0.0000000   0.0000000   0.0000000   0.0000000   0.0000000
 NMagM=    0.0000000   0.0000000   0.0000000   0.0000000   0.0000000   0.0000000   0.0000000   0.0000000   0.0000000   0.0000000
 AtZNuc=   8.0000000   8.0000000   8.0000000   6.0000000   6.0000000   6.0000000   6.0000000  16.0000000  16.0000000  16.0000000

  Atom       131         132         133         134         135         136         137         138         139         140
 IAtWgt=          32           1           1           1           1           1           1           1           1           1
 AtmWgt=  31.9720718   1.0078250   1.0078250   1.0078250   1.0078250   1.0078250   1.0078250   1.0078250   1.0078250   1.0078250
 NucSpn=           0           1           1           1           1           1           1           1           1           1
 AtZEff=  -0.0000000  -0.0000000  -0.0000000  -0.0000000  -0.0000000  -0.0000000  -0.0000000  -0.0000000  -0.0000000  -0.0000000
 NQMom=    0.0000000   0.0000000   0.0000000   0.0000000   0.0000000   0.0000000   0.0000000   0.0000000   0.0000000   0.0000000
 NMagM=    0.0000000   2.7928460   2.7928460   2.7928460   2.7928460   2.7928460   2.7928460   2.7928460   2.7928460   2.7928460
 AtZNuc=  16.0000000   1.0000000   1.0000000   1.0000000   1.0000000   1.0000000   1.0000000   1.0000000   1.0000000   1.0000000

  Atom       141         142         143         144         145         146         147         148         149         150
 IAtWgt=           1           1           1           1           1           1           1           1           1           1
 AtmWgt=   1.0078250   1.0078250   1.0078250   1.0078250   1.0078250   1.0078250   1.0078250   1.0078250   1.0078250   1.0078250
 NucSpn=           1           1           1           1           1           1           1           1           1           1
 AtZEff=  -0.0000000  -0.0000000  -0.0000000  -0.0000000  -0.0000000  -0.0000000  -0.0000000  -0.0000000  -0.0000000  -0.0000000
 NQMom=    0.0000000   0.0000000   0.0000000   0.0000000   0.0000000   0.0000000   0.0000000   0.0000000   0.0000000   0.0000000
 NMagM=    2.7928460   2.7928460   2.7928460   2.7928460   2.7928460   2.7928460   2.7928460   2.7928460   2.7928460   2.7928460
 AtZNuc=   1.0000000   1.0000000   1.0000000   1.0000000   1.0000000   1.0000000   1.0000000   1.0000000   1.0000000   1.0000000

  Atom       151         152         153         154         155         156         157         158         159         160
 IAtWgt=           1           1           1           1           1           1           1          16          16           1
 AtmWgt=   1.0078250   1.0078250   1.0078250   1.0078250   1.0078250   1.0078250   1.0078250  15.9949146  15.9949146   1.0078250
 NucSpn=           1           1           1           1           1           1           1           0           0           1
 AtZEff=  -0.0000000  -0.0000000  -0.0000000  -0.0000000  -0.0000000  -0.0000000  -0.0000000  -0.0000000  -0.0000000  -0.0000000
 NQMom=    0.0000000   0.0000000   0.0000000   0.0000000   0.0000000   0.0000000   0.0000000   0.0000000   0.0000000   0.0000000
 NMagM=    2.7928460   2.7928460   2.7928460   2.7928460   2.7928460   2.7928460   2.7928460   0.0000000   0.0000000   2.7928460
 AtZNuc=   1.0000000   1.0000000   1.0000000   1.0000000   1.0000000   1.0000000   1.0000000   8.0000000   8.0000000   1.0000000

  Atom       161         162         163         164         165         166         167         168         169         170
 IAtWgt=           1           1           1          16           1           1          16           1           1          16
 AtmWgt=   1.0078250   1.0078250   1.0078250  15.9949146   1.0078250   1.0078250  15.9949146   1.0078250   1.0078250  15.9949146
 NucSpn=           1           1           1           0           1           1           0           1           1           0
 AtZEff=  -0.0000000  -0.0000000  -0.0000000  -0.0000000  -0.0000000  -0.0000000  -0.0000000  -0.0000000  -0.0000000  -0.0000000
 NQMom=    0.0000000   0.0000000   0.0000000   0.0000000   0.0000000   0.0000000   0.0000000   0.0000000   0.0000000   0.0000000
 NMagM=    2.7928460   2.7928460   2.7928460   0.0000000   2.7928460   2.7928460   0.0000000   2.7928460   2.7928460   0.0000000
 AtZNuc=   1.0000000   1.0000000   1.0000000   8.0000000   1.0000000   1.0000000   8.0000000   1.0000000   1.0000000   8.0000000

  Atom       171         172         173         174         175
 IAtWgt=          16           1           1           1           1
 AtmWgt=  15.9949146   1.0078250   1.0078250   1.0078250   1.0078250
 NucSpn=           0           1           1           1           1
 AtZEff=  -0.0000000  -0.0000000  -0.0000000  -0.0000000  -0.0000000
 NQMom=    0.0000000   0.0000000   0.0000000   0.0000000   0.0000000
 NMagM=    0.0000000   2.7928460   2.7928460   2.7928460   2.7928460
 AtZNuc=   8.0000000   1.0000000   1.0000000   1.0000000   1.0000000
 Leave Link  101 at Sat Mar 21 21:35:47 2020, MaxMem= 13421772800 cpu:               4.2 elap:               0.2
 (Enter /apps/gaussian/g16-c01-avx/g16/l202.exe)
 Small interatomic distances encountered:
     2    1 0.00D+00
 Atoms too close.
 Error termination via Lnk1e in /apps/gaussian/g16-c01-avx/g16/l202.exe at Sat Mar 21 21:35:54 2020.
 Job cpu time:       0 days  0 hours  0 minutes  5.2 seconds.
 Elapsed time:       0 days  0 hours  0 minutes  0.7 seconds.
 File lengths (MBytes):  RWF=      5 Int=      0 D2E=      0 Chk=      1 Scr=      1
