 Entering Gaussian System, Link 0=g03
 Input=lig-h.com
 Output=lig-h.log
 Initial command:
 /apps/gaussian/g16-c01-avx/g16/l1.exe "/tmp/pbs.1232271.pbs/Gau-38914.inp" -scrdir="/tmp/pbs.1232271.pbs/"
 Entering Link 1 = /apps/gaussian/g16-c01-avx/g16/l1.exe PID=     38916.
  
 Copyright (c) 1988-2019, Gaussian, Inc.  All Rights Reserved.
  
 This is part of the Gaussian(R) 16 program.  It is based on
 the Gaussian(R) 09 system (copyright 2009, Gaussian, Inc.),
 the Gaussian(R) 03 system (copyright 2003, Gaussian, Inc.),
 the Gaussian(R) 98 system (copyright 1998, Gaussian, Inc.),
 the Gaussian(R) 94 system (copyright 1995, Gaussian, Inc.),
 the Gaussian 92(TM) system (copyright 1992, Gaussian, Inc.),
 the Gaussian 90(TM) system (copyright 1990, Gaussian, Inc.),
 the Gaussian 88(TM) system (copyright 1988, Gaussian, Inc.),
 the Gaussian 86(TM) system (copyright 1986, Carnegie Mellon
 University), and the Gaussian 82(TM) system (copyright 1983,
 Carnegie Mellon University). Gaussian is a federally registered
 trademark of Gaussian, Inc.
  
 This software contains proprietary and confidential information,
 including trade secrets, belonging to Gaussian, Inc.
  
 This software is provided under written license and may be
 used, copied, transmitted, or stored only in accord with that
 written license.
  
 The following legend is applicable only to US Government
 contracts under FAR:
  
                    RESTRICTED RIGHTS LEGEND
  
 Use, reproduction and disclosure by the US Government is
 subject to restrictions as set forth in subparagraphs (a)
 and (c) of the Commercial Computer Software - Restricted
 Rights clause in FAR 52.227-19.
  
 Gaussian, Inc.
 340 Quinnipiac St., Bldg. 40, Wallingford CT 06492
  
  
 ---------------------------------------------------------------
 Warning -- This program may not be used in any manner that
 competes with the business of Gaussian, Inc. or will provide
 assistance to any competitor of Gaussian, Inc.  The licensee
 of this program is prohibited from giving any competitor of
 Gaussian, Inc. access to this program.  By using this program,
 the user acknowledges that Gaussian, Inc. is engaged in the
 business of creating and licensing software in the field of
 computational chemistry and represents and warrants to the
 licensee that it is not a competitor of Gaussian, Inc. and that
 it will not use this program in any manner prohibited above.
 ---------------------------------------------------------------
  

 Cite this work as:
 Gaussian 16, Revision C.01,
 M. J. Frisch, G. W. Trucks, H. B. Schlegel, G. E. Scuseria, 
 M. A. Robb, J. R. Cheeseman, G. Scalmani, V. Barone, 
 G. A. Petersson, H. Nakatsuji, X. Li, M. Caricato, A. V. Marenich, 
 J. Bloino, B. G. Janesko, R. Gomperts, B. Mennucci, H. P. Hratchian, 
 J. V. Ortiz, A. F. Izmaylov, J. L. Sonnenberg, D. Williams-Young, 
 F. Ding, F. Lipparini, F. Egidi, J. Goings, B. Peng, A. Petrone, 
 T. Henderson, D. Ranasinghe, V. G. Zakrzewski, J. Gao, N. Rega, 
 G. Zheng, W. Liang, M. Hada, M. Ehara, K. Toyota, R. Fukuda, 
 J. Hasegawa, M. Ishida, T. Nakajima, Y. Honda, O. Kitao, H. Nakai, 
 T. Vreven, K. Throssell, J. A. Montgomery, Jr., J. E. Peralta, 
 F. Ogliaro, M. J. Bearpark, J. J. Heyd, E. N. Brothers, K. N. Kudin, 
 V. N. Staroverov, T. A. Keith, R. Kobayashi, J. Normand, 
 K. Raghavachari, A. P. Rendell, J. C. Burant, S. S. Iyengar, 
 J. Tomasi, M. Cossi, J. M. Millam, M. Klene, C. Adamo, R. Cammi, 
 J. W. Ochterski, R. L. Martin, K. Morokuma, O. Farkas, 
 J. B. Foresman, and D. J. Fox, Gaussian, Inc., Wallingford CT, 2019.
 
 ******************************************
 Gaussian 16:  ES64L-G16RevC.01  3-Jul-2019
                22-Mar-2020 
 ******************************************
 %mem=100GB
 %nprocshared=20
 Will use up to   20 processors via shared memory.
 ------------------
 #p sp b3lyp/6-31g*
 ------------------
 1/38=1,172=1/1;
 2/12=2,17=6,18=5,40=1/2;
 3/5=1,6=6,7=1,11=2,25=1,30=1,74=-5/1,2,3;
 4//1;
 5/5=2,38=5/2;
 6/7=2,8=2,9=2,10=2,28=1/1;
 99/5=1,9=1/99;
 Leave Link    1 at Sun Mar 22 21:51:31 2020, MaxMem= 13421772800 cpu:               0.9 elap:               0.1
 (Enter /apps/gaussian/g16-c01-avx/g16/l101.exe)
 ---------
 lig-h.pdb
 ---------
 Symbolic Z-matrix:
 Charge =  0 Multiplicity = 1
 C                     7.712     4.976     22.568 
 N                     7.991     2.594     22.44 
 O                     6.307     3.385     23.664 
 C                     7.281     3.596     22.95 
 N                     9.096    -0.844     22.611 
 O                     5.702     0.784     16.93 
 C                     7.866     1.223     22.914 
 O                     9.866     1.017     21.611 
 C                     6.526     0.583     22.515 
 C                     6.273     0.626     21.028 
 C                     5.386     1.538     20.475 
 C                     5.174     1.599     19.108 
 C                     5.863     0.737     18.273 
 C                     6.755    -0.172     18.802 
 C                     6.951    -0.224     20.169 
 C                     9.043     0.453     22.33 
 C                     9.98     -1.728     21.882 
 C                     11.351   -1.592     22.376 
 C                     12.458   -1.642     22.833 
 Br                    14.18    -1.925     23.66 
 H                     8.693     4.932     22.095 
 H                     6.992     5.402     21.87 
 H                     7.767     5.6       23.46 
 H                     8.643     2.792     21.694 
 H                     8.511    -1.219     23.344 
 H                     5.313    -0.039     16.625 
 H                     7.88      1.201     24.004 
 H                     5.734     1.156     22.997 
 H                     6.527    -0.458     22.838 
 H                     4.845     2.221     21.13 
 H                     4.47      2.32      18.693 
 H                     7.303    -0.847     18.145 
 H                     7.654    -0.949     20.58 
 H                     9.955    -1.463     20.825 
 H                     9.649    -2.758     22.014 
 H                     10.968   -1.771     23.381 
 H                     11.72    -1.28      21.399 
 H                     12.012   -1.669     23.827 
 H                     12.91    -1.502     21.851 
 
 ITRead=  0  0  0  0  0  0  0  0  0  0  0  0  0  0  0  0  0  0  0  0
 ITRead=  0  0  0  0  0  0  0  0  0  0  0  0  0  0  0  0  0  0  0
 MicOpt= -1 -1 -1 -1 -1 -1 -1 -1 -1 -1 -1 -1 -1 -1 -1 -1 -1 -1 -1 -1
 MicOpt= -1 -1 -1 -1 -1 -1 -1 -1 -1 -1 -1 -1 -1 -1 -1 -1 -1 -1 -1
 NAtoms=     39 NQM=       39 NQMF=       0 NMMI=      0 NMMIF=      0
                NMic=       0 NMicF=      0.
                    Isotopes and Nuclear Properties:
 (Nuclear quadrupole moments (NQMom) in fm**2, nuclear magnetic moments (NMagM)
  in nuclear magnetons)

  Atom         1           2           3           4           5           6           7           8           9          10
 IAtWgt=          12          14          16          12          14          16          12          16          12          12
 AtmWgt=  12.0000000  14.0030740  15.9949146  12.0000000  14.0030740  15.9949146  12.0000000  15.9949146  12.0000000  12.0000000
 NucSpn=           0           2           0           0           2           0           0           0           0           0
 AtZEff=  -0.0000000  -0.0000000  -0.0000000  -0.0000000  -0.0000000  -0.0000000  -0.0000000  -0.0000000  -0.0000000  -0.0000000
 NQMom=    0.0000000   2.0440000   0.0000000   0.0000000   2.0440000   0.0000000   0.0000000   0.0000000   0.0000000   0.0000000
 NMagM=    0.0000000   0.4037610   0.0000000   0.0000000   0.4037610   0.0000000   0.0000000   0.0000000   0.0000000   0.0000000
 AtZNuc=   6.0000000   7.0000000   8.0000000   6.0000000   7.0000000   8.0000000   6.0000000   8.0000000   6.0000000   6.0000000

  Atom        11          12          13          14          15          16          17          18          19          20
 IAtWgt=          12          12          12          12          12          12          12          12          12          79
 AtmWgt=  12.0000000  12.0000000  12.0000000  12.0000000  12.0000000  12.0000000  12.0000000  12.0000000  12.0000000  78.9183361
 NucSpn=           0           0           0           0           0           0           0           0           0           3
 AtZEff=  -0.0000000  -0.0000000  -0.0000000  -0.0000000  -0.0000000  -0.0000000  -0.0000000  -0.0000000  -0.0000000  -0.0000000
 NQMom=    0.0000000   0.0000000   0.0000000   0.0000000   0.0000000   0.0000000   0.0000000   0.0000000   0.0000000  31.3000000
 NMagM=    0.0000000   0.0000000   0.0000000   0.0000000   0.0000000   0.0000000   0.0000000   0.0000000   0.0000000   2.1063990
 AtZNuc=   6.0000000   6.0000000   6.0000000   6.0000000   6.0000000   6.0000000   6.0000000   6.0000000   6.0000000  35.0000000

  Atom        21          22          23          24          25          26          27          28          29          30
 IAtWgt=           1           1           1           1           1           1           1           1           1           1
 AtmWgt=   1.0078250   1.0078250   1.0078250   1.0078250   1.0078250   1.0078250   1.0078250   1.0078250   1.0078250   1.0078250
 NucSpn=           1           1           1           1           1           1           1           1           1           1
 AtZEff=  -0.0000000  -0.0000000  -0.0000000  -0.0000000  -0.0000000  -0.0000000  -0.0000000  -0.0000000  -0.0000000  -0.0000000
 NQMom=    0.0000000   0.0000000   0.0000000   0.0000000   0.0000000   0.0000000   0.0000000   0.0000000   0.0000000   0.0000000
 NMagM=    2.7928460   2.7928460   2.7928460   2.7928460   2.7928460   2.7928460   2.7928460   2.7928460   2.7928460   2.7928460
 AtZNuc=   1.0000000   1.0000000   1.0000000   1.0000000   1.0000000   1.0000000   1.0000000   1.0000000   1.0000000   1.0000000

  Atom        31          32          33          34          35          36          37          38          39
 IAtWgt=           1           1           1           1           1           1           1           1           1
 AtmWgt=   1.0078250   1.0078250   1.0078250   1.0078250   1.0078250   1.0078250   1.0078250   1.0078250   1.0078250
 NucSpn=           1           1           1           1           1           1           1           1           1
 AtZEff=  -0.0000000  -0.0000000  -0.0000000  -0.0000000  -0.0000000  -0.0000000  -0.0000000  -0.0000000  -0.0000000
 NQMom=    0.0000000   0.0000000   0.0000000   0.0000000   0.0000000   0.0000000   0.0000000   0.0000000   0.0000000
 NMagM=    2.7928460   2.7928460   2.7928460   2.7928460   2.7928460   2.7928460   2.7928460   2.7928460   2.7928460
 AtZNuc=   1.0000000   1.0000000   1.0000000   1.0000000   1.0000000   1.0000000   1.0000000   1.0000000   1.0000000
 Leave Link  101 at Sun Mar 22 21:51:31 2020, MaxMem= 13421772800 cpu:               8.2 elap:               0.5
 (Enter /apps/gaussian/g16-c01-avx/g16/l202.exe)
                          Input orientation:                          
 ---------------------------------------------------------------------
 Center     Atomic      Atomic             Coordinates (Angstroms)
 Number     Number       Type             X           Y           Z
 ---------------------------------------------------------------------
      1          6           0        7.712000    4.976000   22.568000
      2          7           0        7.991000    2.594000   22.440000
      3          8           0        6.307000    3.385000   23.664000
      4          6           0        7.281000    3.596000   22.950000
      5          7           0        9.096000   -0.844000   22.611000
      6          8           0        5.702000    0.784000   16.930000
      7          6           0        7.866000    1.223000   22.914000
      8          8           0        9.866000    1.017000   21.611000
      9          6           0        6.526000    0.583000   22.515000
     10          6           0        6.273000    0.626000   21.028000
     11          6           0        5.386000    1.538000   20.475000
     12          6           0        5.174000    1.599000   19.108000
     13          6           0        5.863000    0.737000   18.273000
     14          6           0        6.755000   -0.172000   18.802000
     15          6           0        6.951000   -0.224000   20.169000
     16          6           0        9.043000    0.453000   22.330000
     17          6           0        9.980000   -1.728000   21.882000
     18          6           0       11.351000   -1.592000   22.376000
     19          6           0       12.458000   -1.642000   22.833000
     20         35           0       14.180000   -1.925000   23.660000
     21          1           0        8.693000    4.932000   22.095000
     22          1           0        6.992000    5.402000   21.870000
     23          1           0        7.767000    5.600000   23.460000
     24          1           0        8.643000    2.792000   21.694000
     25          1           0        8.511000   -1.219000   23.344000
     26          1           0        5.313000   -0.039000   16.625000
     27          1           0        7.880000    1.201000   24.004000
     28          1           0        5.734000    1.156000   22.997000
     29          1           0        6.527000   -0.458000   22.838000
     30          1           0        4.845000    2.221000   21.130000
     31          1           0        4.470000    2.320000   18.693000
     32          1           0        7.303000   -0.847000   18.145000
     33          1           0        7.654000   -0.949000   20.580000
     34          1           0        9.955000   -1.463000   20.825000
     35          1           0        9.649000   -2.758000   22.014000
     36          1           0       10.968000   -1.771000   23.381000
     37          1           0       11.720000   -1.280000   21.399000
     38          1           0       12.012000   -1.669000   23.827000
     39          1           0       12.910000   -1.502000   21.851000
 ---------------------------------------------------------------------
                    Distance matrix (angstroms):
                    1          2          3          4          5
     1  C    0.000000
     2  N    2.401697   0.000000
     3  O    2.388833   2.227041   0.000000
     4  C    1.495354   1.329738   1.225966   0.000000
     5  N    5.982450   3.615261   5.174144   4.808612   0.000000
     6  O    7.307531   6.235040   7.244169   6.829421   6.814938
     7  C    3.772061   1.456002   2.768975   2.444310   2.424293
     8  O    4.607521   2.586464   4.742227   3.889266   2.248604
     9  C    4.550588   2.489171   3.036341   3.136466   2.941164
    10  C    4.833717   2.969561   3.815984   3.678457   3.554732
    11  C    4.648738   3.429634   3.798601   3.735239   4.899033
    12  C    5.460510   4.475236   5.023009   4.815436   5.798391
    13  C    6.311493   5.033957   6.022617   5.662061   5.636497
    14  C    6.449846   4.734289   6.040861   5.628535   4.521100
    15  C    5.777051   3.765656   5.065041   4.736587   3.308895
    16  C    4.720777   2.388030   4.226331   3.656158   1.328149
    17  C    7.110417   4.790320   6.542876   6.063844   1.447188
    18  C    7.511179   5.368081   7.202181   6.618891   2.387416
    19  C    8.148169   6.168649   7.987246   7.365573   3.462533
    20  Br   9.521097   7.759735   9.496328   8.864634   5.302454
    21  H    1.089966   2.465375   3.247763   2.123597   5.812989
    22  H    1.089532   3.034430   2.784951   2.124043   6.632376
    23  H    1.089984   3.182234   2.660722   2.124220   6.634167
    24  H    2.529920   1.010358   3.112787   2.019652   3.777115
    25  H    6.294331   3.953048   5.114375   4.985214   1.010019
    26  H    8.137854   6.922326   7.890458   7.555916   7.126802
    27  H    4.042393   2.097347   2.712892   2.684351   2.757015
    28  H    4.323069   2.733522   2.396176   2.889467   3.930908
    29  H    5.568257   3.408285   3.936918   4.125043   2.607736
    30  H    4.228186   3.428199   3.148570   3.337233   5.445970
    31  H    5.707935   5.149032   5.405519   5.258512   6.838238
    32  H    7.323765   5.546246   7.025753   6.544368   4.812485
    33  H    6.249891   4.015721   5.487169   5.139363   2.493060
    34  H    7.037742   4.787982   6.698577   6.104046   2.076256
    35  H    7.992099   5.619105   7.185257   6.845205   2.079811
    36  H    7.535550   5.366678   6.956245   6.525674   2.226345
    37  H    7.521181   5.476952   7.496200   6.773898   2.923083
    38  H    8.014431   6.022074   7.623419   7.132441   3.265323
    39  H    8.336533   6.428118   8.412452   7.673529   3.944257
                    6          7          8          9         10
     6  O    0.000000
     7  C    6.378391   0.000000
     8  O    6.269366   2.395881   0.000000
     9  C    5.649035   1.537661   3.487287   0.000000
    10  C    4.140605   2.539893   3.660931   1.508982   0.000000
    11  C    3.638049   3.492613   4.651058   2.524525   1.387199
    12  C    2.384679   4.676952   5.349635   3.803657   2.416802
    13  C    1.353432   5.078099   5.219641   4.296260   2.787552
    14  C    2.350985   4.482063   4.356894   3.795897   2.413339
    15  C    3.614856   3.235129   3.480901   2.517060   1.385664
    16  C    6.358604   1.522920   1.229791   2.527136   3.065621
    17  C    7.009546   3.773913   2.760700   4.203751   4.473531
    18  C    8.198506   4.512083   3.097956   5.294391   5.702869
    19  C    9.293784   5.413063   3.909224   6.343530   6.830525
    20  Br  11.158318   7.094577   5.609310   8.135404   8.715255
    21  H    7.268371   3.887335   4.115508   4.877099   5.053368
    22  H    6.884303   4.395208   5.249303   4.884254   4.902663
    23  H    8.372513   4.412034   5.369217   5.253893   5.734748
    24  H    5.947877   2.133985   2.157138   3.167872   3.279026
    25  H    7.282986   2.562087   3.136720   2.806184   3.711674
    26  H    0.960039   6.903765   6.834116   6.045689   4.555242
    27  H    7.413437   1.090312   3.115205   2.105317   3.430692
    28  H    6.078478   2.134667   4.360475   1.089916   2.109119
    29  H    6.093247   2.150455   3.850984   1.089959   2.125011
    30  H    4.520997   3.647616   5.185694   2.725258   2.143272
    31  H    2.642970   5.527483   6.271312   4.674611   3.401863
    32  H    2.588356   5.229267   4.696448   4.663210   3.397399
    33  H    4.487326   3.195322   3.133857   2.713601   2.142076
    34  H    6.189349   3.992798   2.603098   4.335926   4.238190
    35  H    7.346539   4.453925   3.802647   4.600697   4.880679
    36  H    8.710579   4.336419   3.481415   5.101239   5.772802
    37  H    7.774856   4.838755   2.959471   5.629730   5.782758
    38  H    9.664467   5.136784   4.090302   6.073635   6.785097
    39  H    9.022045   5.830740   3.958396   6.748598   7.018225
                   11         12         13         14         15
    11  C    0.000000
    12  C    1.384686   0.000000
    13  C    2.391220   1.383832   0.000000
    14  C    2.756300   2.393666   1.379053   0.000000
    15  C    2.376448   2.758039   2.387903   1.381958   0.000000
    16  C    4.241686   5.163696   5.162587   4.251159   3.082972
    17  C    5.809582   6.470057   6.004231   4.723152   3.790940
    18  C    6.999423   7.682294   7.237195   5.992753   5.109038
    19  C    8.104674   8.799793   8.363448   7.136811   6.279703
    20  Br   9.973516  10.688654  10.260531   9.044545   8.206030
    21  H    5.007982   5.693366   6.341499   6.375775   5.773073
    22  H    4.410868   5.039502   5.997939   6.366967   5.877666
    23  H    5.574875   6.455351   7.360635   7.485793   6.739103
    24  H    3.696826   4.488274   4.863606   4.551209   3.779517
    25  H    5.059430   6.084438   6.045898   4.980914   3.674813
    26  H    4.161101   2.977861   1.902782   2.614648   3.908607
    27  H    4.334449   5.608178   6.093271   5.496504   4.195342
    28  H    2.574395   3.954007   4.744300   4.517084   3.373881
    29  H    3.296918   4.469313   4.765306   4.052539   2.712581
    30  H    1.090044   2.140936   3.376541   3.846314   3.367014
    31  H    2.150838   1.089808   2.150055   3.382775   3.847840
    32  H    3.846039   3.382739   2.144537   1.089761   2.146767
    33  H    3.367494   3.848310   3.372318   2.138507   1.090300
    34  H    5.477615   5.931433   5.300676   3.999901   3.315037
    35  H    6.244782   6.888680   6.367409   5.037815   4.135745
    36  H    7.110066   7.948954   7.644786   6.424439   5.370888
    37  H    6.993887   7.509157   6.938632   5.711681   5.037003
    38  H    8.088549   8.927879   8.628207   7.424802   6.409580
    39  H    8.230769   8.774164   8.214342   6.996379   6.322348
                   16         17         18         19         20
    16  C    0.000000
    17  C    2.415664   0.000000
    18  C    3.083992   1.463616   0.000000
    19  C    4.037853   2.655613   1.198665   0.000000
    20  Br   5.814856   4.565095   3.124546   1.931140   0.000000
    21  H    4.498796   6.786556   7.050284   7.611658   8.920473
    22  H    5.376877   7.730795   8.256691   8.967857  10.419039
    23  H    5.421871   7.815820   8.108328   8.651311   9.888994
    24  H    2.456709   4.717342   5.197869   5.959186   7.534827
    25  H    2.026525   2.134124   3.023533   4.002357   5.721525
    26  H    6.833885   7.229776   8.481937   9.599995  11.474838
    27  H    2.171255   4.182335   4.743319   5.514705   7.041322
    28  H    3.447982   5.252542   6.283935   7.284770   9.014824
    29  H    2.723645   3.801321   4.976985   6.048028   7.835572
    30  H    4.710523   6.521375   7.643266   8.705214  10.522948
    31  H    6.133986   7.544278   8.730200   9.830828  11.703641
    32  H    4.715064   4.680562   5.902770   7.013087   8.880903
    33  H    2.637693   2.777107   4.160153   5.351138   7.282009
    34  H    2.601504   1.090000   2.090708   3.213894   5.108943
    35  H    3.282928   1.089901   2.094613   3.131565   4.892154
    36  H    3.123524   1.795827   1.090300   1.592810   3.227770
    37  H    3.322105   1.860536   1.089970   1.652890   3.402903
    38  H    3.944471   2.813455   1.596324   1.089808   2.189440
    39  H    4.359490   2.938867   1.647485   1.090059   2.250402
                   21         22         23         24         25
    21  H    0.000000
    22  H    1.779024   0.000000
    23  H    1.779586   1.779868   0.000000
    24  H    2.177820   3.093360   3.430889   0.000000
    25  H    6.279166   6.951092   6.860448   4.339130   0.000000
    26  H    8.127493   7.741676   9.194436   6.693147   7.534226
    27  H    4.269146   4.794883   4.433949   2.906811   2.586535
    28  H    4.881338   4.569596   4.908828   3.582818   3.670526
    29  H    5.856253   5.957588   6.214809   4.043352   2.184356
    30  H    4.804982   3.908449   5.038316   3.881873   5.493173
    31  H    6.019126   5.094363   6.659797   5.161658   7.105350
    32  H    7.136627   7.281645   8.368293   5.256741   5.350444
    33  H    6.161242   6.514411   7.155178   4.026686   2.906380
    34  H    6.640901   7.549809   7.849620   4.536687   2.913766
    35  H    7.749619   8.582889   8.688441   5.649508   2.330765
    36  H    7.194417   8.339282   8.036435   5.391898   2.518516
    37  H    6.945221   8.199082   8.198069   5.112352   3.752922
    38  H    7.588728   8.889842   8.425739   5.983341   3.562694
    39  H    7.696686   9.093311   8.915029   6.055607   4.654067
                   26         27         28         29         30
    26  H    0.000000
    27  H    7.910545   0.000000
    28  H    6.496741   2.370947   0.000000
    29  H    6.344346   2.437713   1.805305   0.000000
    30  H    5.061783   4.302499   2.325991   3.594917   0.000000
    31  H    3.248408   6.409913   4.634329   5.397181   2.467670
    32  H    2.631229   6.233387   5.478656   4.772604   4.936052
    33  H    4.685126   4.049364   3.736217   2.570948   4.271052
    34  H    6.419964   4.637732   5.421585   4.100412   6.306899
    35  H    7.432037   4.771073   5.622536   3.964323   6.974978
    36  H    8.978997   4.330896   6.009121   4.662757   7.648150
    37  H    8.085840   5.261842   6.657319   5.451023   7.719779
    38  H    9.970070   5.034049   6.934177   5.703496   8.589051
    39  H    9.336266   6.102665   7.737781   6.542690   8.912059
                   31         32         33         34         35
    31  H    0.000000
    32  H    4.284400   0.000000
    33  H    4.938116   2.462281   0.000000
    34  H    6.995837   3.820335   2.370405   0.000000
    35  H    7.977291   4.911700   3.051043   1.784484   0.000000
    36  H    8.996534   6.457685   4.416320   2.766617   2.140705
    37  H    8.534924   5.503262   4.160851   1.864991   2.617585
    38  H    9.957502   7.425328   5.482114   3.644954   3.171224
    39  H    9.788475   6.752919   5.435696   3.128294   3.498318
                   36         37         38         39
    36  H    0.000000
    37  H    2.175985   0.000000
    38  H    1.139849   2.476241   0.000000
    39  H    2.486891   1.292164   2.176894   0.000000
 Stoichiometry    C14H19BrN2O3
 Framework group  C1[X(C14H19BrN2O3)]
 Deg. of freedom   111
 Full point group                 C1      NOp   1
 Largest Abelian subgroup         C1      NOp   1
 Largest concise Abelian subgroup C1      NOp   1
                         Standard orientation:                         
 ---------------------------------------------------------------------
 Center     Atomic      Atomic             Coordinates (Angstroms)
 Number     Number       Type             X           Y           Z
 ---------------------------------------------------------------------
      1          6           0       -2.800474    3.689367   -1.611940
      2          7           0       -1.634640    1.971038   -0.405157
      3          8           0       -2.937346    3.359612    0.750062
      4          6           0       -2.460269    3.010236   -0.323869
      5          7           0        0.764368   -0.231711    1.164164
      6          8           0       -4.775568   -3.339467   -1.304510
      7          6           0       -1.008446    1.373074    0.765425
      8          8           0        0.291485    0.336252   -0.959517
      9          6           0       -2.013061    0.608840    1.643546
     10          6           0       -2.772482   -0.450484    0.883191
     11          6           0       -4.088223   -0.251203    0.491481
     12          6           0       -4.777885   -1.209784   -0.231598
     13          6           0       -4.143014   -2.390098   -0.576256
     14          6           0       -2.832850   -2.604656   -0.203133
     15          6           0       -2.160314   -1.640328    0.523211
     16          6           0        0.087781    0.451308    0.247816
     17          6           0        1.609727   -1.344835    0.789096
     18          6           0        2.880940   -0.856070    0.253092
     19          6           0        3.993618   -0.528650   -0.049470
     20         35           0        5.849969   -0.075483   -0.328576
     21          1           0       -2.127121    3.340793   -2.394958
     22          1           0       -3.828247    3.454435   -1.886841
     23          1           0       -2.692730    4.767614   -1.494295
     24          1           0       -1.433985    1.580996   -1.315338
     25          1           0        0.687950    0.029324    2.136871
     26          1           0       -4.873153   -4.135703   -0.777102
     27          1           0       -0.599640    2.151594    1.410068
     28          1           0       -2.741524    1.331487    2.011022
     29          1           0       -1.470199    0.130469    2.458699
     30          1           0       -4.589475    0.679332    0.758023
     31          1           0       -5.812493   -1.036167   -0.526767
     32          1           0       -2.329714   -3.530980   -0.479459
     33          1           0       -1.126329   -1.819624    0.818984
     34          1           0        1.103750   -1.933088    0.023560
     35          1           0        1.801323   -1.963395    1.665771
     36          1           0        2.990555   -0.257449    1.157742
     37          1           0        2.714979   -1.343530   -0.707571
     38          1           0        3.984066    0.164483    0.791456
     39          1           0        3.966124   -1.135448   -0.954604
 ---------------------------------------------------------------------
 Rotational constants (GHZ):           0.3960339           0.0988931           0.0850004
 Leave Link  202 at Sun Mar 22 21:51:32 2020, MaxMem= 13421772800 cpu:               0.1 elap:               0.0
 (Enter /apps/gaussian/g16-c01-avx/g16/l301.exe)
 Standard basis: 6-31G(d) (6D, 7F)
 Ernie: Thresh=  0.10000D-02 Tol=  0.10000D-05 Strict=F.
 There are   353 symmetry adapted cartesian basis functions of A   symmetry.
 There are   353 symmetry adapted basis functions of A   symmetry.
   353 basis functions,   691 primitive gaussians,   353 cartesian basis functions
    88 alpha electrons       88 beta electrons
       nuclear repulsion energy      1892.3084919389 Hartrees.
 IExCor=  402 DFT=T Ex+Corr=B3LYP ExCW=0 ScaHFX=  0.200000
 ScaDFX=  0.800000  0.720000  1.000000  0.810000 ScalE2=  1.000000  1.000000
 IRadAn=      5 IRanWt=     -1 IRanGd=            0 ICorTp=0 IEmpDi=  4
 NAtoms=   39 NActive=   39 NUniq=   39 SFac= 1.00D+00 NAtFMM=   60 NAOKFM=F Big=F
 Integral buffers will be    131072 words long.
 Raffenetti 2 integral format.
 Two-electron integral symmetry is turned on.
 Leave Link  301 at Sun Mar 22 21:51:33 2020, MaxMem= 13421772800 cpu:               1.5 elap:               0.1
 (Enter /apps/gaussian/g16-c01-avx/g16/l302.exe)
 NPDir=0 NMtPBC=     1 NCelOv=     1 NCel=       1 NClECP=     1 NCelD=      1
         NCelK=      1 NCelE2=     1 NClLst=     1 CellRange=     0.0.
 One-electron integrals computed using PRISM.
 One-electron integral symmetry used in STVInt
 NBasis=   353 RedAO= T EigKep=  3.17D-04  NBF=   353
 NBsUse=   353 1.00D-06 EigRej= -1.00D+00 NBFU=   353
 Precomputing XC quadrature grid using
 IXCGrd= 4 IRadAn=           5 IRanWt=          -1 IRanGd=           0 AccXCQ= 0.00D+00.
 Generated NRdTot=       0 NPtTot=           0 NUsed=           0 NTot=          32
 NSgBfM=   345   344   344   345   345 MxSgAt=    39 MxSgA2=    39.
 Leave Link  302 at Sun Mar 22 21:51:34 2020, MaxMem= 13421772800 cpu:              13.4 elap:               0.7
 (Enter /apps/gaussian/g16-c01-avx/g16/l303.exe)
 DipDrv:  MaxL=1.
 Leave Link  303 at Sun Mar 22 21:51:34 2020, MaxMem= 13421772800 cpu:               1.5 elap:               0.1
 (Enter /apps/gaussian/g16-c01-avx/g16/l401.exe)
 ExpMin= 1.43D-01 ExpMax= 5.74D+05 ExpMxC= 5.74D+03 IAcc=3 IRadAn=         5 AccDes= 0.00D+00
 Harris functional with IExCor=  402 and IRadAn=       5 diagonalized for initial guess.
 HarFok:  IExCor=  402 AccDes= 0.00D+00 IRadAn=         5 IDoV= 1 UseB2=F ITyADJ=14
 ICtDFT=  3500011 ScaDFX=  1.000000  1.000000  1.000000  1.000000
 FoFCou: FMM=F IPFlag=           0 FMFlag=      100000 FMFlg1=           0
         NFxFlg=           0 DoJE=T BraDBF=F KetDBF=T FulRan=T
         wScrn=  0.000000 ICntrl=       500 IOpCl=  0 I1Cent=   200000004 NGrid=           0
         NMat0=    1 NMatS0=      1 NMatT0=    0 NMatD0=    1 NMtDS0=    0 NMtDT0=    0
 Petite list used in FoFCou.
 Harris En= -3451.50371188000    
 JPrj=0 DoOrth=F DoCkMO=F.
 Leave Link  401 at Sun Mar 22 21:51:36 2020, MaxMem= 13421772800 cpu:              39.4 elap:               2.0
 (Enter /apps/gaussian/g16-c01-avx/g16/l502.exe)
 Integral symmetry usage will be decided dynamically.
 Closed shell SCF:
 Using DIIS extrapolation, IDIIS=  1040.
 NGot= 13421772800 LenX= 13421511653 LenY= 13421386603
 Requested convergence on RMS density matrix=1.00D-08 within 128 cycles.
 Requested convergence on MAX density matrix=1.00D-06.
 Requested convergence on             energy=1.00D-06.
 No special actions if energy rises.
 Fock matrices will be formed incrementally for  20 cycles.
 Integral accuracy reduced to 1.0D-05 until final iterations.

 Cycle   1  Pass 0  IDiag  1:
 FoFJK:  IHMeth= 1 ICntrl=       0 DoSepK=F KAlg= 0 I1Cent=           0 FoldK=F
 IRaf= 770000000 NMat=       1 IRICut=       1 DoRegI=T DoRafI=F ISym2E= 0 IDoP0=0 IntGTp=1.
 FoFCou: FMM=F IPFlag=           0 FMFlag=      100000 FMFlg1=           0
         NFxFlg=           0 DoJE=F BraDBF=F KetDBF=F FulRan=T
         wScrn=  0.000000 ICntrl=         0 IOpCl=  0 I1Cent=           0 NGrid=           0
         NMat0=    1 NMatS0=      1 NMatT0=    0 NMatD0=    1 NMtDS0=    0 NMtDT0=    0
 Symmetry not used in FoFCou.
 E= -3450.65764291290    
 DIIS: error= 2.00D-01 at cycle   1 NSaved=   1.
 NSaved= 1 IEnMin= 1 EnMin= -3450.65764291290     IErMin= 1 ErrMin= 2.00D-01
 ErrMax= 2.00D-01  0.00D+00 EMaxC= 1.00D-01 BMatC= 9.76D-01 BMatP= 9.76D-01
 IDIUse=3 WtCom= 0.00D+00 WtEn= 1.00D+00
 Coeff-Com:  0.100D+01
 Coeff-En:   0.100D+01
 Coeff:      0.100D+01
 Gap=     0.007 Goal=   None    Shift=    0.000
 GapD=    0.007 DampG=0.250 DampE=0.250 DampFc=0.2500 IDamp=-1.
 Damping current iteration by 2.50D-01
 RMSDP=9.56D-03 MaxDP=8.16D-01              OVMax= 7.18D-01

 Cycle   2  Pass 0  IDiag  1:
 RMSU=  2.37D-03    CP:  9.90D-01
 E= -3450.87430316274     Delta-E=       -0.216660249841 Rises=F Damp=T
 DIIS: error= 1.50D-01 at cycle   2 NSaved=   2.
 NSaved= 2 IEnMin= 2 EnMin= -3450.87430316274     IErMin= 2 ErrMin= 1.50D-01
 ErrMax= 1.50D-01  0.00D+00 EMaxC= 1.00D-01 BMatC= 3.34D-01 BMatP= 9.76D-01
 IDIUse=3 WtCom= 0.00D+00 WtEn= 1.00D+00
 Coeff-Com: -0.803D+00 0.180D+01
 Coeff-En:   0.000D+00 0.100D+01
 Coeff:      0.000D+00 0.100D+01
 Gap=     0.086 Goal=   None    Shift=    0.000
 RMSDP=3.41D-03 MaxDP=1.88D-01 DE=-2.17D-01 OVMax= 4.47D-01

 Cycle   3  Pass 0  IDiag  1:
 RMSU=  2.85D-03    CP:  9.67D-01  1.74D+00
 E= -3451.16203855530     Delta-E=       -0.287735392563 Rises=F Damp=F
 DIIS: error= 8.69D-03 at cycle   3 NSaved=   3.
 NSaved= 3 IEnMin= 3 EnMin= -3451.16203855530     IErMin= 3 ErrMin= 8.69D-03
 ErrMax= 8.69D-03  0.00D+00 EMaxC= 1.00D-01 BMatC= 1.27D-01 BMatP= 3.34D-01
 IDIUse=3 WtCom= 9.13D-01 WtEn= 8.69D-02
 Coeff-Com:  0.336D+00-0.148D+00 0.813D+00
 Coeff-En:   0.984D-01 0.000D+00 0.902D+00
 Coeff:      0.315D+00-0.135D+00 0.821D+00
 Gap=     0.065 Goal=   None    Shift=    0.000
 RMSDP=1.72D-03 MaxDP=6.40D-02 DE=-2.88D-01 OVMax= 9.81D-02

 Cycle   4  Pass 0  IDiag  1:
 RMSU=  1.30D-03    CP:  9.70D-01  1.51D+00  6.56D-01
 E= -3451.23295790091     Delta-E=       -0.070919345608 Rises=F Damp=F
 DIIS: error= 7.15D-03 at cycle   4 NSaved=   4.
 NSaved= 4 IEnMin= 4 EnMin= -3451.23295790091     IErMin= 4 ErrMin= 7.15D-03
 ErrMax= 7.15D-03  0.00D+00 EMaxC= 1.00D-01 BMatC= 4.42D-02 BMatP= 1.27D-01
 IDIUse=3 WtCom= 9.28D-01 WtEn= 7.15D-02
 Coeff-Com:  0.374D+00-0.459D+00 0.539D+00 0.545D+00
 Coeff-En:   0.000D+00 0.000D+00 0.232D+00 0.768D+00
 Coeff:      0.347D+00-0.426D+00 0.517D+00 0.561D+00
 Gap=     0.061 Goal=   None    Shift=    0.000
 RMSDP=1.91D-03 MaxDP=1.32D-01 DE=-7.09D-02 OVMax= 2.46D-01

 Cycle   5  Pass 0  IDiag  1:
 RMSU=  8.99D-04    CP:  9.72D-01  1.03D+00  8.21D-01  1.12D-01
 E= -3451.26404081676     Delta-E=       -0.031082915857 Rises=F Damp=F
 DIIS: error= 4.75D-03 at cycle   5 NSaved=   5.
 NSaved= 5 IEnMin= 5 EnMin= -3451.26404081676     IErMin= 5 ErrMin= 4.75D-03
 ErrMax= 4.75D-03  0.00D+00 EMaxC= 1.00D-01 BMatC= 1.10D-02 BMatP= 4.42D-02
 IDIUse=3 WtCom= 9.53D-01 WtEn= 4.75D-02
 Coeff-Com:  0.230D+00-0.286D+00 0.333D+00 0.408D+00 0.316D+00
 Coeff-En:   0.000D+00 0.000D+00 0.000D+00 0.290D+00 0.710D+00
 Coeff:      0.219D+00-0.273D+00 0.317D+00 0.402D+00 0.335D+00
 Gap=     0.064 Goal=   None    Shift=    0.000
 RMSDP=1.14D-03 MaxDP=7.45D-02 DE=-3.11D-02 OVMax= 1.51D-01

 Cycle   6  Pass 0  IDiag  1:
 RMSU=  1.67D-04    CP:  9.70D-01  1.33D+00  8.11D-01  5.01D-01  2.14D-01
 E= -3451.27991222188     Delta-E=       -0.015871405112 Rises=F Damp=F
 DIIS: error= 1.35D-03 at cycle   6 NSaved=   6.
 NSaved= 6 IEnMin= 6 EnMin= -3451.27991222188     IErMin= 6 ErrMin= 1.35D-03
 ErrMax= 1.35D-03  0.00D+00 EMaxC= 1.00D-01 BMatC= 7.46D-04 BMatP= 1.10D-02
 IDIUse=3 WtCom= 9.87D-01 WtEn= 1.35D-02
 Coeff-Com:  0.964D-01-0.124D+00 0.129D+00 0.172D+00 0.217D+00 0.511D+00
 Coeff-En:   0.000D+00 0.000D+00 0.000D+00 0.000D+00 0.522D-01 0.948D+00
 Coeff:      0.951D-01-0.122D+00 0.127D+00 0.169D+00 0.214D+00 0.517D+00
 Gap=     0.067 Goal=   None    Shift=    0.000
 RMSDP=2.10D-04 MaxDP=1.29D-02 DE=-1.59D-02 OVMax= 2.67D-02

 Cycle   7  Pass 0  IDiag  1:
 RMSU=  7.19D-05    CP:  9.70D-01  1.28D+00  8.18D-01  4.46D-01  3.33D-01
                    CP:  5.65D-01
 E= -3451.28069102383     Delta-E=       -0.000778801948 Rises=F Damp=F
 DIIS: error= 3.36D-04 at cycle   7 NSaved=   7.
 NSaved= 7 IEnMin= 7 EnMin= -3451.28069102383     IErMin= 7 ErrMin= 3.36D-04
 ErrMax= 3.36D-04  0.00D+00 EMaxC= 1.00D-01 BMatC= 1.23D-04 BMatP= 7.46D-04
 IDIUse=3 WtCom= 9.97D-01 WtEn= 3.36D-03
 Coeff-Com:  0.258D-01-0.346D-01 0.271D-01 0.367D-01 0.827D-01 0.340D+00
 Coeff-Com:  0.522D+00
 Coeff-En:   0.000D+00 0.000D+00 0.000D+00 0.000D+00 0.000D+00 0.107D+00
 Coeff-En:   0.893D+00
 Coeff:      0.257D-01-0.344D-01 0.271D-01 0.366D-01 0.825D-01 0.339D+00
 Coeff:      0.524D+00
 Gap=     0.067 Goal=   None    Shift=    0.000
 RMSDP=5.05D-05 MaxDP=2.53D-03 DE=-7.79D-04 OVMax= 4.64D-03

 Cycle   8  Pass 0  IDiag  1:
 RMSU=  2.53D-05    CP:  9.70D-01  1.28D+00  8.17D-01  4.54D-01  3.13D-01
                    CP:  6.88D-01  6.19D-01
 E= -3451.28079710394     Delta-E=       -0.000106080110 Rises=F Damp=F
 DIIS: error= 8.69D-05 at cycle   8 NSaved=   8.
 NSaved= 8 IEnMin= 8 EnMin= -3451.28079710394     IErMin= 8 ErrMin= 8.69D-05
 ErrMax= 8.69D-05  0.00D+00 EMaxC= 1.00D-01 BMatC= 9.42D-06 BMatP= 1.23D-04
 IDIUse=1 WtCom= 1.00D+00 WtEn= 0.00D+00
 Coeff-Com:  0.623D-02-0.864D-02 0.372D-02 0.339D-02 0.256D-01 0.128D+00
 Coeff-Com:  0.291D+00 0.551D+00
 Coeff:      0.623D-02-0.864D-02 0.372D-02 0.339D-02 0.256D-01 0.128D+00
 Coeff:      0.291D+00 0.551D+00
 Gap=     0.067 Goal=   None    Shift=    0.000
 RMSDP=1.34D-05 MaxDP=4.80D-04 DE=-1.06D-04 OVMax= 9.18D-04

 Cycle   9  Pass 0  IDiag  1:
 RMSU=  9.23D-06    CP:  9.70D-01  1.28D+00  8.17D-01  4.53D-01  3.17D-01
                    CP:  6.85D-01  6.70D-01  7.23D-01
 E= -3451.28080534732     Delta-E=       -0.000008243390 Rises=F Damp=F
 DIIS: error= 3.87D-05 at cycle   9 NSaved=   9.
 NSaved= 9 IEnMin= 9 EnMin= -3451.28080534732     IErMin= 9 ErrMin= 3.87D-05
 ErrMax= 3.87D-05  0.00D+00 EMaxC= 1.00D-01 BMatC= 1.77D-06 BMatP= 9.42D-06
 IDIUse=1 WtCom= 1.00D+00 WtEn= 0.00D+00
 Coeff-Com:  0.777D-03-0.110D-02-0.103D-02-0.273D-02 0.681D-02 0.335D-01
 Coeff-Com:  0.116D+00 0.347D+00 0.501D+00
 Coeff:      0.777D-03-0.110D-02-0.103D-02-0.273D-02 0.681D-02 0.335D-01
 Coeff:      0.116D+00 0.347D+00 0.501D+00
 Gap=     0.067 Goal=   None    Shift=    0.000
 RMSDP=5.19D-06 MaxDP=1.95D-04 DE=-8.24D-06 OVMax= 4.74D-04

 Initial convergence to 1.0D-05 achieved.  Increase integral accuracy.
 Cycle  10  Pass 1  IDiag  1:
 E= -3451.28083968313     Delta-E=       -0.000034335809 Rises=F Damp=F
 DIIS: error= 6.80D-05 at cycle   1 NSaved=   1.
 NSaved= 1 IEnMin= 1 EnMin= -3451.28083968313     IErMin= 1 ErrMin= 6.80D-05
 ErrMax= 6.80D-05  0.00D+00 EMaxC= 1.00D-01 BMatC= 8.83D-07 BMatP= 8.83D-07
 IDIUse=1 WtCom= 1.00D+00 WtEn= 0.00D+00
 Coeff-Com:  0.100D+01
 Coeff:      0.100D+01
 Gap=     0.067 Goal=   None    Shift=    0.000
 RMSDP=5.19D-06 MaxDP=1.95D-04 DE=-3.43D-05 OVMax= 1.70D-03

 Cycle  11  Pass 1  IDiag  1:
 RMSU=  5.09D-05    CP:  1.00D+00
 E= -3451.28083848168     Delta-E=        0.000001201454 Rises=F Damp=F
 DIIS: error= 5.49D-05 at cycle   2 NSaved=   2.
 NSaved= 2 IEnMin= 1 EnMin= -3451.28083968313     IErMin= 2 ErrMin= 5.49D-05
 ErrMax= 5.49D-05  0.00D+00 EMaxC= 1.00D-01 BMatC= 1.41D-06 BMatP= 8.83D-07
 IDIUse=1 WtCom= 1.00D+00 WtEn= 0.00D+00
 Coeff-Com:  0.580D+00 0.420D+00
 Coeff:      0.580D+00 0.420D+00
 Gap=     0.067 Goal=   None    Shift=    0.000
 RMSDP=1.80D-05 MaxDP=1.25D-03 DE= 1.20D-06 OVMax= 2.40D-03

 Cycle  12  Pass 1  IDiag  1:
 RMSU=  1.75D-05    CP:  1.00D+00  9.17D-01
 E= -3451.28083946635     Delta-E=       -0.000000984669 Rises=F Damp=F
 DIIS: error= 4.67D-05 at cycle   3 NSaved=   3.
 NSaved= 3 IEnMin= 1 EnMin= -3451.28083968313     IErMin= 3 ErrMin= 4.67D-05
 ErrMax= 4.67D-05  0.00D+00 EMaxC= 1.00D-01 BMatC= 7.68D-07 BMatP= 8.83D-07
 IDIUse=1 WtCom= 1.00D+00 WtEn= 0.00D+00
 Coeff-Com:  0.740D-01 0.406D+00 0.520D+00
 Coeff:      0.740D-01 0.406D+00 0.520D+00
 Gap=     0.067 Goal=   None    Shift=    0.000
 RMSDP=7.63D-06 MaxDP=5.31D-04 DE=-9.85D-07 OVMax= 1.00D-03

 Cycle  13  Pass 1  IDiag  1:
 RMSU=  1.38D-06    CP:  1.00D+00  9.60D-01  5.88D-01
 E= -3451.28084049192     Delta-E=       -0.000001025576 Rises=F Damp=F
 DIIS: error= 9.86D-06 at cycle   4 NSaved=   4.
 NSaved= 4 IEnMin= 4 EnMin= -3451.28084049192     IErMin= 4 ErrMin= 9.86D-06
 ErrMax= 9.86D-06  0.00D+00 EMaxC= 1.00D-01 BMatC= 8.25D-08 BMatP= 7.68D-07
 IDIUse=1 WtCom= 1.00D+00 WtEn= 0.00D+00
 Coeff-Com: -0.105D-02 0.261D+00 0.362D+00 0.378D+00
 Coeff:     -0.105D-02 0.261D+00 0.362D+00 0.378D+00
 Gap=     0.067 Goal=   None    Shift=    0.000
 RMSDP=1.06D-06 MaxDP=5.18D-05 DE=-1.03D-06 OVMax= 8.70D-05

 Cycle  14  Pass 1  IDiag  1:
 RMSU=  3.64D-07    CP:  1.00D+00  9.58D-01  6.19D-01  3.95D-01
 E= -3451.28084056241     Delta-E=       -0.000000070487 Rises=F Damp=F
 DIIS: error= 1.61D-06 at cycle   5 NSaved=   5.
 NSaved= 5 IEnMin= 5 EnMin= -3451.28084056241     IErMin= 5 ErrMin= 1.61D-06
 ErrMax= 1.61D-06  0.00D+00 EMaxC= 1.00D-01 BMatC= 2.38D-09 BMatP= 8.25D-08
 IDIUse=1 WtCom= 1.00D+00 WtEn= 0.00D+00
 Coeff-Com: -0.316D-02 0.156D+00 0.208D+00 0.245D+00 0.395D+00
 Coeff:     -0.316D-02 0.156D+00 0.208D+00 0.245D+00 0.395D+00
 Gap=     0.067 Goal=   None    Shift=    0.000
 RMSDP=2.42D-07 MaxDP=1.84D-05 DE=-7.05D-08 OVMax= 2.48D-05

 Cycle  15  Pass 1  IDiag  1:
 RMSU=  1.25D-07    CP:  1.00D+00  9.59D-01  6.08D-01  4.17D-01  8.00D-01
 E= -3451.28084056489     Delta-E=       -0.000000002476 Rises=F Damp=F
 DIIS: error= 7.04D-07 at cycle   6 NSaved=   6.
 NSaved= 6 IEnMin= 6 EnMin= -3451.28084056489     IErMin= 6 ErrMin= 7.04D-07
 ErrMax= 7.04D-07  0.00D+00 EMaxC= 1.00D-01 BMatC= 1.57D-10 BMatP= 2.38D-09
 IDIUse=1 WtCom= 1.00D+00 WtEn= 0.00D+00
 Coeff-Com: -0.157D-02 0.606D-01 0.740D-01 0.954D-01 0.165D+00 0.606D+00
 Coeff:     -0.157D-02 0.606D-01 0.740D-01 0.954D-01 0.165D+00 0.606D+00
 Gap=     0.067 Goal=   None    Shift=    0.000
 RMSDP=5.72D-08 MaxDP=2.58D-06 DE=-2.48D-09 OVMax= 5.69D-06

 Cycle  16  Pass 1  IDiag  1:
 RMSU=  4.61D-08    CP:  1.00D+00  9.59D-01  6.09D-01  4.30D-01  8.73D-01
                    CP:  1.03D+00
 E= -3451.28084056499     Delta-E=       -0.000000000104 Rises=F Damp=F
 DIIS: error= 3.36D-07 at cycle   7 NSaved=   7.
 NSaved= 7 IEnMin= 7 EnMin= -3451.28084056499     IErMin= 7 ErrMin= 3.36D-07
 ErrMax= 3.36D-07  0.00D+00 EMaxC= 1.00D-01 BMatC= 5.83D-11 BMatP= 1.57D-10
 IDIUse=1 WtCom= 1.00D+00 WtEn= 0.00D+00
 Coeff-Com:  0.173D-03-0.160D-01-0.303D-01-0.279D-01-0.733D-01 0.322D+00
 Coeff-Com:  0.825D+00
 Coeff:      0.173D-03-0.160D-01-0.303D-01-0.279D-01-0.733D-01 0.322D+00
 Coeff:      0.825D+00
 Gap=     0.067 Goal=   None    Shift=    0.000
 RMSDP=4.90D-08 MaxDP=4.33D-06 DE=-1.04D-10 OVMax= 4.18D-06

 Cycle  17  Pass 1  IDiag  1:
 RMSU=  1.82D-08    CP:  1.00D+00  9.59D-01  6.08D-01  4.36D-01  9.45D-01
                    CP:  1.28D+00  1.05D+00
 E= -3451.28084056508     Delta-E=       -0.000000000094 Rises=F Damp=F
 DIIS: error= 8.48D-08 at cycle   8 NSaved=   8.
 NSaved= 8 IEnMin= 8 EnMin= -3451.28084056508     IErMin= 8 ErrMin= 8.48D-08
 ErrMax= 8.48D-08  0.00D+00 EMaxC= 1.00D-01 BMatC= 5.69D-12 BMatP= 5.83D-11
 IDIUse=1 WtCom= 1.00D+00 WtEn= 0.00D+00
 Coeff-Com:  0.307D-03-0.169D-01-0.277D-01-0.288D-01-0.686D-01 0.108D+00
 Coeff-Com:  0.483D+00 0.551D+00
 Coeff:      0.307D-03-0.169D-01-0.277D-01-0.288D-01-0.686D-01 0.108D+00
 Coeff:      0.483D+00 0.551D+00
 Gap=     0.067 Goal=   None    Shift=    0.000
 RMSDP=1.50D-08 MaxDP=1.34D-06 DE=-9.37D-11 OVMax= 1.21D-06

 Cycle  18  Pass 1  IDiag  1:
 RMSU=  7.83D-09    CP:  1.00D+00  9.59D-01  6.08D-01  4.37D-01  9.64D-01
                    CP:  1.33D+00  1.13D+00  8.25D-01
 E= -3451.28084056510     Delta-E=       -0.000000000014 Rises=F Damp=F
 DIIS: error= 2.49D-08 at cycle   9 NSaved=   9.
 NSaved= 9 IEnMin= 9 EnMin= -3451.28084056510     IErMin= 9 ErrMin= 2.49D-08
 ErrMax= 2.49D-08  0.00D+00 EMaxC= 1.00D-01 BMatC= 6.80D-13 BMatP= 5.69D-12
 IDIUse=1 WtCom= 1.00D+00 WtEn= 0.00D+00
 Coeff-Com:  0.161D-03-0.831D-02-0.135D-01-0.142D-01-0.341D-01 0.383D-01
 Coeff-Com:  0.217D+00 0.349D+00 0.466D+00
 Coeff:      0.161D-03-0.831D-02-0.135D-01-0.142D-01-0.341D-01 0.383D-01
 Coeff:      0.217D+00 0.349D+00 0.466D+00
 Gap=     0.067 Goal=   None    Shift=    0.000
 RMSDP=3.57D-09 MaxDP=9.80D-08 DE=-1.36D-11 OVMax= 3.46D-07

 SCF Done:  E(RB3LYP) =  -3451.28084057     A.U. after   18 cycles
            NFock= 18  Conv=0.36D-08     -V/T= 2.0062
 KE= 3.430102975636D+03 PE=-1.196696310307D+04 EE= 3.193270794928D+03
 Leave Link  502 at Sun Mar 22 21:52:14 2020, MaxMem= 13421772800 cpu:             748.7 elap:              37.5
 (Enter /apps/gaussian/g16-c01-avx/g16/l601.exe)
 Copying SCF densities to generalized density rwf, IOpCl= 0 IROHF=0.

 **********************************************************************

            Population analysis using the SCF Density.

 **********************************************************************

 Orbital symmetries:
       Occupied  (A) (A) (A) (A) (A) (A) (A) (A) (A) (A) (A) (A)
                 (A) (A) (A) (A) (A) (A) (A) (A) (A) (A) (A) (A)
                 (A) (A) (A) (A) (A) (A) (A) (A) (A) (A) (A) (A)
                 (A) (A) (A) (A) (A) (A) (A) (A) (A) (A) (A) (A)
                 (A) (A) (A) (A) (A) (A) (A) (A) (A) (A) (A) (A)
                 (A) (A) (A) (A) (A) (A) (A) (A) (A) (A) (A) (A)
                 (A) (A) (A) (A) (A) (A) (A) (A) (A) (A) (A) (A)
                 (A) (A) (A) (A)
       Virtual   (A) (A) (A) (A) (A) (A) (A) (A) (A) (A) (A) (A)
                 (A) (A) (A) (A) (A) (A) (A) (A) (A) (A) (A) (A)
                 (A) (A) (A) (A) (A) (A) (A) (A) (A) (A) (A) (A)
                 (A) (A) (A) (A) (A) (A) (A) (A) (A) (A) (A) (A)
                 (A) (A) (A) (A) (A) (A) (A) (A) (A) (A) (A) (A)
                 (A) (A) (A) (A) (A) (A) (A) (A) (A) (A) (A) (A)
                 (A) (A) (A) (A) (A) (A) (A) (A) (A) (A) (A) (A)
                 (A) (A) (A) (A) (A) (A) (A) (A) (A) (A) (A) (A)
                 (A) (A) (A) (A) (A) (A) (A) (A) (A) (A) (A) (A)
                 (A) (A) (A) (A) (A) (A) (A) (A) (A) (A) (A) (A)
                 (A) (A) (A) (A) (A) (A) (A) (A) (A) (A) (A) (A)
                 (A) (A) (A) (A) (A) (A) (A) (A) (A) (A) (A) (A)
                 (A) (A) (A) (A) (A) (A) (A) (A) (A) (A) (A) (A)
                 (A) (A) (A) (A) (A) (A) (A) (A) (A) (A) (A) (A)
                 (A) (A) (A) (A) (A) (A) (A) (A) (A) (A) (A) (A)
                 (A) (A) (A) (A) (A) (A) (A) (A) (A) (A) (A) (A)
                 (A) (A) (A) (A) (A) (A) (A) (A) (A) (A) (A) (A)
                 (A) (A) (A) (A) (A) (A) (A) (A) (A) (A) (A) (A)
                 (A) (A) (A) (A) (A) (A) (A) (A) (A) (A) (A) (A)
                 (A) (A) (A) (A) (A) (A) (A) (A) (A) (A) (A) (A)
                 (A) (A) (A) (A) (A) (A) (A) (A) (A) (A) (A) (A)
                 (A) (A) (A) (A) (A) (A) (A) (A) (A) (A) (A) (A)
                 (A)
 The electronic state is 1-A.
 Alpha  occ. eigenvalues -- -482.89762 -61.85953 -56.38128 -56.37683 -56.37639
 Alpha  occ. eigenvalues --  -19.16729 -19.14417 -19.10014 -14.40027 -14.35634
 Alpha  occ. eigenvalues --  -10.31395 -10.30943 -10.27808 -10.25062 -10.24291
 Alpha  occ. eigenvalues --  -10.22680 -10.19881 -10.19418 -10.19301 -10.19039
 Alpha  occ. eigenvalues --  -10.18910 -10.18794 -10.18744 -10.18667  -8.57158
 Alpha  occ. eigenvalues --   -6.52633  -6.51308  -6.51139  -2.64195  -2.63854
 Alpha  occ. eigenvalues --   -2.63723  -2.62670  -2.62666  -1.07165  -1.06003
 Alpha  occ. eigenvalues --   -1.02985  -0.98029  -0.92690  -0.92142  -0.86448
 Alpha  occ. eigenvalues --   -0.81720  -0.79186  -0.75762  -0.75413  -0.74939
 Alpha  occ. eigenvalues --   -0.71942  -0.67348  -0.66385  -0.63194  -0.62261
 Alpha  occ. eigenvalues --   -0.60369  -0.58844  -0.57812  -0.56118  -0.55087
 Alpha  occ. eigenvalues --   -0.50680  -0.50455  -0.49283  -0.47937  -0.47653
 Alpha  occ. eigenvalues --   -0.46979  -0.46002  -0.45581  -0.45086  -0.44374
 Alpha  occ. eigenvalues --   -0.42960  -0.42456  -0.41802  -0.40373  -0.40061
 Alpha  occ. eigenvalues --   -0.39520  -0.38834  -0.36465  -0.36004  -0.35798
 Alpha  occ. eigenvalues --   -0.35091  -0.34158  -0.33946  -0.30453  -0.29866
 Alpha  occ. eigenvalues --   -0.28406  -0.27040  -0.25881  -0.25360  -0.24328
 Alpha  occ. eigenvalues --   -0.24091  -0.23473  -0.17723
 Alpha virt. eigenvalues --   -0.11052  -0.01505  -0.00181   0.00099   0.00753
 Alpha virt. eigenvalues --    0.03092   0.04715   0.07094   0.07338   0.09122
 Alpha virt. eigenvalues --    0.09708   0.10098   0.11034   0.12150   0.13097
 Alpha virt. eigenvalues --    0.14086   0.14462   0.15259   0.15688   0.16269
 Alpha virt. eigenvalues --    0.17527   0.17921   0.18436   0.19460   0.20271
 Alpha virt. eigenvalues --    0.21246   0.23051   0.23699   0.24951   0.26406
 Alpha virt. eigenvalues --    0.27011   0.28012   0.29409   0.30656   0.31469
 Alpha virt. eigenvalues --    0.31962   0.33962   0.34108   0.36229   0.37018
 Alpha virt. eigenvalues --    0.39083   0.40849   0.44088   0.45022   0.45927
 Alpha virt. eigenvalues --    0.47792   0.48132   0.48347   0.48884   0.50110
 Alpha virt. eigenvalues --    0.50327   0.50772   0.51309   0.52528   0.52748
 Alpha virt. eigenvalues --    0.53748   0.54216   0.55009   0.55695   0.56493
 Alpha virt. eigenvalues --    0.57034   0.57567   0.58881   0.59380   0.60427
 Alpha virt. eigenvalues --    0.60858   0.61003   0.61793   0.62198   0.62911
 Alpha virt. eigenvalues --    0.64181   0.64599   0.64995   0.66246   0.67159
 Alpha virt. eigenvalues --    0.67658   0.68630   0.70366   0.71550   0.72870
 Alpha virt. eigenvalues --    0.74107   0.74371   0.75949   0.76877   0.78042
 Alpha virt. eigenvalues --    0.78396   0.79186   0.79884   0.81020   0.82354
 Alpha virt. eigenvalues --    0.82712   0.83522   0.83829   0.84876   0.85003
 Alpha virt. eigenvalues --    0.86282   0.87001   0.87702   0.88137   0.88661
 Alpha virt. eigenvalues --    0.89164   0.90320   0.90431   0.91320   0.91480
 Alpha virt. eigenvalues --    0.93096   0.93610   0.94884   0.95744   0.96668
 Alpha virt. eigenvalues --    0.96935   0.97544   0.98141   1.00614   1.01852
 Alpha virt. eigenvalues --    1.02954   1.04145   1.05040   1.05842   1.06372
 Alpha virt. eigenvalues --    1.07275   1.10450   1.11175   1.12159   1.13397
 Alpha virt. eigenvalues --    1.14317   1.15428   1.17118   1.18785   1.19939
 Alpha virt. eigenvalues --    1.22389   1.22979   1.24947   1.26506   1.27412
 Alpha virt. eigenvalues --    1.31202   1.33400   1.35077   1.35959   1.38694
 Alpha virt. eigenvalues --    1.40983   1.42117   1.42924   1.44372   1.45391
 Alpha virt. eigenvalues --    1.46582   1.46938   1.47897   1.49825   1.50146
 Alpha virt. eigenvalues --    1.51244   1.51725   1.53029   1.56373   1.58626
 Alpha virt. eigenvalues --    1.60922   1.62480   1.66858   1.68126   1.70771
 Alpha virt. eigenvalues --    1.73491   1.74396   1.77107   1.78374   1.79342
 Alpha virt. eigenvalues --    1.80691   1.81353   1.82743   1.82950   1.83485
 Alpha virt. eigenvalues --    1.84964   1.85371   1.87414   1.88600   1.89274
 Alpha virt. eigenvalues --    1.91214   1.92205   1.93323   1.94577   1.95253
 Alpha virt. eigenvalues --    1.97615   1.97966   1.98515   1.99889   2.00808
 Alpha virt. eigenvalues --    2.02476   2.04368   2.05324   2.07319   2.08945
 Alpha virt. eigenvalues --    2.10573   2.13412   2.13699   2.15612   2.17116
 Alpha virt. eigenvalues --    2.17794   2.19322   2.22274   2.23642   2.24662
 Alpha virt. eigenvalues --    2.25823   2.26904   2.29179   2.30339   2.31073
 Alpha virt. eigenvalues --    2.33507   2.36734   2.38115   2.38610   2.41386
 Alpha virt. eigenvalues --    2.41750   2.43904   2.48097   2.48918   2.53300
 Alpha virt. eigenvalues --    2.53479   2.55851   2.57324   2.58666   2.61172
 Alpha virt. eigenvalues --    2.61473   2.63152   2.66054   2.67931   2.69024
 Alpha virt. eigenvalues --    2.69953   2.71720   2.73177   2.76510   2.78052
 Alpha virt. eigenvalues --    2.79984   2.83824   2.88118   2.91115   2.93538
 Alpha virt. eigenvalues --    2.94447   2.97830   2.98696   3.00701   3.14237
 Alpha virt. eigenvalues --    3.15596   3.22644   3.30665   3.45159   3.89870
 Alpha virt. eigenvalues --    3.98491   4.02524   4.05784   4.11473   4.12730
 Alpha virt. eigenvalues --    4.13725   4.17002   4.19016   4.26069   4.27969
 Alpha virt. eigenvalues --    4.33155   4.37598   4.44676   4.47907   4.52844
 Alpha virt. eigenvalues --    4.63713   4.66863   4.78458   8.61109  72.72265
          Condensed to atoms (all electrons):
               1          2          3          4          5          6
     1  C    5.320004  -0.127084  -0.083104   0.353159   0.000001   0.000000
     2  N   -0.127084   7.132667  -0.109714   0.276144   0.003192   0.000000
     3  O   -0.083104  -0.109714   8.113474   0.577665  -0.000003  -0.000000
     4  C    0.353159   0.276144   0.577665   4.301977  -0.000097  -0.000000
     5  N    0.000001   0.003192  -0.000003  -0.000097   7.203520   0.000000
     6  O    0.000000   0.000000  -0.000000  -0.000000   0.000000   8.264795
     7  C    0.008223   0.271880   0.009822  -0.028052  -0.121269   0.000000
     8  O   -0.000070  -0.014336  -0.000008   0.000534  -0.103802   0.000000
     9  C   -0.000609  -0.060836  -0.011354  -0.001939   0.002996   0.000001
    10  C    0.000037  -0.003396  -0.000850  -0.000974  -0.005939   0.000383
    11  C   -0.000053   0.004891  -0.000812   0.001803  -0.000094   0.003792
    12  C   -0.000016  -0.000176   0.000018   0.000057   0.000001  -0.050249
    13  C    0.000000   0.000009   0.000000   0.000001  -0.000002   0.244750
    14  C   -0.000000  -0.000029  -0.000000  -0.000006   0.000521  -0.055376
    15  C    0.000001  -0.001046  -0.000015  -0.000074  -0.003092   0.005837
    16  C   -0.000016  -0.032928   0.000786   0.006196   0.232249   0.000000
    17  C   -0.000000  -0.000086   0.000000   0.000001   0.250968   0.000000
    18  C    0.000000   0.000006  -0.000000  -0.000000  -0.107283  -0.000000
    19  C   -0.000000   0.000000  -0.000000   0.000000   0.001526   0.000000
    20  Br   0.000000   0.000000   0.000000  -0.000000  -0.000121  -0.000000
    21  H    0.339925   0.009363   0.003533  -0.031930  -0.000000  -0.000000
    22  H    0.361429   0.000722   0.000097  -0.020877  -0.000000  -0.000000
    23  H    0.362998   0.002410   0.001142  -0.017293  -0.000000  -0.000000
    24  H    0.000055   0.287190   0.003166  -0.012533   0.001394  -0.000000
    25  H    0.000000   0.000074   0.000002   0.000002   0.298712  -0.000000
    26  H    0.000000  -0.000000  -0.000000  -0.000000   0.000000   0.245231
    27  H    0.000298  -0.043354   0.005837  -0.001558   0.000130   0.000000
    28  H    0.000390  -0.009442   0.020007   0.001942   0.000190  -0.000000
    29  H    0.000009   0.004980   0.000272   0.000313   0.003951  -0.000000
    30  H   -0.000039  -0.001411   0.003060   0.001597  -0.000000  -0.000066
    31  H    0.000000  -0.000002  -0.000000  -0.000003   0.000000  -0.000231
    32  H   -0.000000   0.000000  -0.000000  -0.000000  -0.000001  -0.002394
    33  H    0.000000   0.000154   0.000000  -0.000001   0.003056  -0.000091
    34  H   -0.000000   0.000003   0.000000   0.000000  -0.047148  -0.000000
    35  H    0.000000   0.000001   0.000000   0.000000  -0.028742  -0.000000
    36  H   -0.000000  -0.000000  -0.000000  -0.000000  -0.009512  -0.000000
    37  H   -0.000000  -0.000001   0.000000   0.000000   0.003483   0.000000
    38  H   -0.000000  -0.000000   0.000000   0.000000   0.003089   0.000000
    39  H   -0.000000  -0.000000  -0.000000  -0.000000   0.000141  -0.000000
               7          8          9         10         11         12
     1  C    0.008223  -0.000070  -0.000609   0.000037  -0.000053  -0.000016
     2  N    0.271880  -0.014336  -0.060836  -0.003396   0.004891  -0.000176
     3  O    0.009822  -0.000008  -0.011354  -0.000850  -0.000812   0.000018
     4  C   -0.028052   0.000534  -0.001939  -0.000974   0.001803   0.000057
     5  N   -0.121269  -0.103802   0.002996  -0.005939  -0.000094   0.000001
     6  O    0.000000   0.000000   0.000001   0.000383   0.003792  -0.050249
     7  C    5.154974  -0.087104   0.311275  -0.042202  -0.004719  -0.000153
     8  O   -0.087104   8.091390  -0.000862   0.001269   0.000030  -0.000000
     9  C    0.311275  -0.000862   5.320374   0.337190  -0.048447   0.007524
    10  C   -0.042202   0.001269   0.337190   4.657583   0.565478  -0.032202
    11  C   -0.004719   0.000030  -0.048447   0.565478   4.988463   0.481813
    12  C   -0.000153  -0.000000   0.007524  -0.032202   0.481813   5.002161
    13  C    0.000054   0.000002   0.000347  -0.034795  -0.013385   0.555188
    14  C    0.000000  -0.000290   0.007822  -0.027344  -0.048303  -0.077707
    15  C   -0.005675  -0.000099  -0.063187   0.546186  -0.037529  -0.044381
    16  C    0.308548   0.578134  -0.043922  -0.002894  -0.000096  -0.000005
    17  C    0.007145   0.011962  -0.000357   0.000082  -0.000000  -0.000000
    18  C   -0.000487  -0.000658   0.000040  -0.000013  -0.000000   0.000000
    19  C   -0.000033  -0.001438   0.000001   0.000000  -0.000000  -0.000000
    20  Br   0.000000   0.000005  -0.000000  -0.000000  -0.000000   0.000000
    21  H    0.000150  -0.000031   0.000029  -0.000005  -0.000003   0.000001
    22  H   -0.000087   0.000000   0.000026   0.000022   0.000042   0.000004
    23  H   -0.000241  -0.000000  -0.000003  -0.000001   0.000001   0.000000
    24  H   -0.045254   0.032501   0.002425   0.001242   0.000154   0.000002
    25  H   -0.000041   0.003277   0.000369   0.000299   0.000006  -0.000000
    26  H    0.000000   0.000000  -0.000000   0.000005  -0.000179   0.002037
    27  H    0.363328   0.001234  -0.051004   0.005909   0.000035   0.000002
    28  H   -0.022766  -0.000094   0.350808  -0.032261  -0.005106   0.000141
    29  H   -0.043384  -0.000023   0.337887  -0.030771   0.002761  -0.000197
    30  H    0.000177  -0.000000  -0.010898  -0.038117   0.348813  -0.041457
    31  H   -0.000000  -0.000000  -0.000170   0.004162  -0.039403   0.344307
    32  H   -0.000002  -0.000001  -0.000194   0.003884   0.000533   0.006219
    33  H   -0.001982  -0.001544  -0.009041  -0.050780   0.006654   0.000512
    34  H    0.000533   0.007492  -0.000143   0.000233   0.000002  -0.000000
    35  H   -0.000019   0.000548  -0.000008   0.000009   0.000000  -0.000000
    36  H   -0.000335  -0.000317   0.000010  -0.000000   0.000000  -0.000000
    37  H    0.000030   0.003570  -0.000000  -0.000001   0.000000   0.000000
    38  H   -0.000027  -0.000055   0.000001   0.000000   0.000000  -0.000000
    39  H   -0.000004  -0.000175   0.000000  -0.000000   0.000000  -0.000000
              13         14         15         16         17         18
     1  C    0.000000  -0.000000   0.000001  -0.000016  -0.000000   0.000000
     2  N    0.000009  -0.000029  -0.001046  -0.032928  -0.000086   0.000006
     3  O    0.000000  -0.000000  -0.000015   0.000786   0.000000  -0.000000
     4  C    0.000001  -0.000006  -0.000074   0.006196   0.000001  -0.000000
     5  N   -0.000002   0.000521  -0.003092   0.232249   0.250968  -0.107283
     6  O    0.244750  -0.055376   0.005837   0.000000   0.000000  -0.000000
     7  C    0.000054   0.000000  -0.005675   0.308548   0.007145  -0.000487
     8  O    0.000002  -0.000290  -0.000099   0.578134   0.011962  -0.000658
     9  C    0.000347   0.007822  -0.063187  -0.043922  -0.000357   0.000040
    10  C   -0.034795  -0.027344   0.546186  -0.002894   0.000082  -0.000013
    11  C   -0.013385  -0.048303  -0.037529  -0.000096  -0.000000  -0.000000
    12  C    0.555188  -0.077707  -0.044381  -0.000005  -0.000000   0.000000
    13  C    4.506671   0.522562  -0.014979  -0.000007  -0.000000  -0.000000
    14  C    0.522562   5.088640   0.456198  -0.000498  -0.000072   0.000004
    15  C   -0.014979   0.456198   5.033491   0.007949  -0.001009   0.000144
    16  C   -0.000007  -0.000498   0.007949   4.399135  -0.020047  -0.011606
    17  C   -0.000000  -0.000072  -0.001009  -0.020047   4.965950   0.308071
    18  C   -0.000000   0.000004   0.000144  -0.011606   0.308071   6.028160
    19  C   -0.000000   0.000000   0.000002  -0.000633  -0.054891   0.791354
    20  Br  -0.000000  -0.000000   0.000000  -0.000014   0.001111   0.006680
    21  H   -0.000000   0.000000   0.000000  -0.000096  -0.000000  -0.000000
    22  H   -0.000000  -0.000000   0.000000   0.000001   0.000000  -0.000000
    23  H    0.000000  -0.000000  -0.000000   0.000001   0.000000   0.000000
    24  H   -0.000000   0.000008   0.000137  -0.002251  -0.000046   0.000001
    25  H    0.000000  -0.000008  -0.000187  -0.018201  -0.027030   0.002808
    26  H   -0.025559  -0.006145   0.000078  -0.000000  -0.000000  -0.000000
    27  H   -0.000000   0.000004  -0.000027  -0.029873  -0.000053  -0.000015
    28  H   -0.000003  -0.000157   0.004810   0.004033   0.000012   0.000000
    29  H    0.000007   0.000009  -0.005751  -0.009354   0.000084   0.000047
    30  H    0.003898   0.000320   0.006746   0.000015  -0.000000  -0.000000
    31  H   -0.035905   0.006849   0.000357   0.000000   0.000000   0.000000
    32  H   -0.040393   0.344319  -0.036103   0.000016   0.000001  -0.000000
    33  H    0.003813  -0.038804   0.336139   0.000030  -0.001009   0.000360
    34  H    0.000002  -0.000050   0.000876  -0.001350   0.398721  -0.071564
    35  H   -0.000000  -0.000008   0.000119   0.005629   0.374300  -0.059057
    36  H    0.000000   0.000000  -0.000013   0.000955  -0.001231  -0.151601
    37  H    0.000000   0.000000  -0.000013   0.002656  -0.032124   0.032630
    38  H    0.000000   0.000000  -0.000000   0.000822  -0.006570  -0.375778
    39  H    0.000000   0.000000  -0.000001  -0.000008   0.000114  -0.206484
              19         20         21         22         23         24
     1  C   -0.000000   0.000000   0.339925   0.361429   0.362998   0.000055
     2  N    0.000000   0.000000   0.009363   0.000722   0.002410   0.287190
     3  O   -0.000000   0.000000   0.003533   0.000097   0.001142   0.003166
     4  C    0.000000  -0.000000  -0.031930  -0.020877  -0.017293  -0.012533
     5  N    0.001526  -0.000121  -0.000000  -0.000000  -0.000000   0.001394
     6  O    0.000000  -0.000000  -0.000000  -0.000000  -0.000000  -0.000000
     7  C   -0.000033   0.000000   0.000150  -0.000087  -0.000241  -0.045254
     8  O   -0.001438   0.000005  -0.000031   0.000000  -0.000000   0.032501
     9  C    0.000001  -0.000000   0.000029   0.000026  -0.000003   0.002425
    10  C    0.000000  -0.000000  -0.000005   0.000022  -0.000001   0.001242
    11  C   -0.000000  -0.000000  -0.000003   0.000042   0.000001   0.000154
    12  C   -0.000000   0.000000   0.000001   0.000004   0.000000   0.000002
    13  C   -0.000000  -0.000000  -0.000000  -0.000000   0.000000  -0.000000
    14  C    0.000000  -0.000000   0.000000  -0.000000  -0.000000   0.000008
    15  C    0.000002   0.000000   0.000000   0.000000  -0.000000   0.000137
    16  C   -0.000633  -0.000014  -0.000096   0.000001   0.000001  -0.002251
    17  C   -0.054891   0.001111  -0.000000   0.000000   0.000000  -0.000046
    18  C    0.791354   0.006680  -0.000000  -0.000000   0.000000   0.000001
    19  C    5.598188   0.287982   0.000000  -0.000000   0.000000   0.000001
    20  Br   0.287982  35.231957  -0.000000  -0.000000   0.000000  -0.000000
    21  H    0.000000  -0.000000   0.574031  -0.024771  -0.024328   0.002686
    22  H   -0.000000  -0.000000  -0.024771   0.519910  -0.020803  -0.000015
    23  H    0.000000   0.000000  -0.024328  -0.020803   0.507476  -0.000073
    24  H    0.000001  -0.000000   0.002686  -0.000015  -0.000073   0.373253
    25  H   -0.000388   0.000002   0.000000  -0.000000   0.000000  -0.000043
    26  H   -0.000000  -0.000000   0.000000   0.000000  -0.000000  -0.000000
    27  H   -0.000001  -0.000000  -0.000057  -0.000019   0.000042   0.004098
    28  H   -0.000000   0.000000  -0.000019   0.000001  -0.000002  -0.000253
    29  H    0.000001   0.000000  -0.000000  -0.000001   0.000000  -0.000074
    30  H   -0.000000  -0.000000   0.000001   0.000030  -0.000000  -0.000043
    31  H    0.000000   0.000000   0.000000   0.000001  -0.000000  -0.000000
    32  H   -0.000000  -0.000000   0.000000   0.000000  -0.000000  -0.000000
    33  H    0.000004  -0.000000   0.000000  -0.000000  -0.000000   0.000003
    34  H   -0.001366  -0.000195   0.000000   0.000000  -0.000000  -0.000008
    35  H   -0.002855  -0.000099  -0.000000   0.000000  -0.000000  -0.000000
    36  H   -0.325129  -0.049934   0.000000   0.000000  -0.000000   0.000000
    37  H   -0.225207  -0.024866  -0.000000  -0.000000   0.000000  -0.000003
    38  H    0.075933  -0.175143  -0.000000  -0.000000   0.000000   0.000000
    39  H    0.064273  -0.171756   0.000000  -0.000000   0.000000   0.000000
              25         26         27         28         29         30
     1  C    0.000000   0.000000   0.000298   0.000390   0.000009  -0.000039
     2  N    0.000074  -0.000000  -0.043354  -0.009442   0.004980  -0.001411
     3  O    0.000002  -0.000000   0.005837   0.020007   0.000272   0.003060
     4  C    0.000002  -0.000000  -0.001558   0.001942   0.000313   0.001597
     5  N    0.298712   0.000000   0.000130   0.000190   0.003951  -0.000000
     6  O   -0.000000   0.245231   0.000000  -0.000000  -0.000000  -0.000066
     7  C   -0.000041   0.000000   0.363328  -0.022766  -0.043384   0.000177
     8  O    0.003277   0.000000   0.001234  -0.000094  -0.000023  -0.000000
     9  C    0.000369  -0.000000  -0.051004   0.350808   0.337887  -0.010898
    10  C    0.000299   0.000005   0.005909  -0.032261  -0.030771  -0.038117
    11  C    0.000006  -0.000179   0.000035  -0.005106   0.002761   0.348813
    12  C   -0.000000   0.002037   0.000002   0.000141  -0.000197  -0.041457
    13  C    0.000000  -0.025559  -0.000000  -0.000003   0.000007   0.003898
    14  C   -0.000008  -0.006145   0.000004  -0.000157   0.000009   0.000320
    15  C   -0.000187   0.000078  -0.000027   0.004810  -0.005751   0.006746
    16  C   -0.018201  -0.000000  -0.029873   0.004033  -0.009354   0.000015
    17  C   -0.027030  -0.000000  -0.000053   0.000012   0.000084  -0.000000
    18  C    0.002808  -0.000000  -0.000015   0.000000   0.000047  -0.000000
    19  C   -0.000388  -0.000000  -0.000001  -0.000000   0.000001  -0.000000
    20  Br   0.000002  -0.000000  -0.000000   0.000000   0.000000  -0.000000
    21  H    0.000000   0.000000  -0.000057  -0.000019  -0.000000   0.000001
    22  H   -0.000000   0.000000  -0.000019   0.000001  -0.000001   0.000030
    23  H    0.000000  -0.000000   0.000042  -0.000002   0.000000  -0.000000
    24  H   -0.000043  -0.000000   0.004098  -0.000253  -0.000074  -0.000043
    25  H    0.382147  -0.000000   0.001410  -0.000107   0.005674   0.000000
    26  H   -0.000000   0.372452  -0.000000  -0.000000  -0.000000   0.000006
    27  H    0.001410  -0.000000   0.569078  -0.006764   0.001543  -0.000058
    28  H   -0.000107  -0.000000  -0.006764   0.505347  -0.021027   0.007018
    29  H    0.005674  -0.000000   0.001543  -0.021027   0.624090   0.000048
    30  H    0.000000   0.000006  -0.000058   0.007018   0.000048   0.578946
    31  H    0.000000  -0.000219  -0.000000  -0.000008   0.000003  -0.006032
    32  H    0.000000   0.001651  -0.000000   0.000003  -0.000002   0.000018
    33  H    0.000227   0.000001  -0.000068   0.000058   0.003316  -0.000216
    34  H    0.004147  -0.000000  -0.000008  -0.000000  -0.000027  -0.000000
    35  H   -0.004087   0.000000  -0.000001  -0.000000  -0.000011  -0.000000
    36  H    0.004280  -0.000000   0.000026  -0.000000  -0.000027   0.000000
    37  H   -0.000124  -0.000000   0.000001   0.000000  -0.000002   0.000000
    38  H   -0.000197  -0.000000   0.000004  -0.000000  -0.000001   0.000000
    39  H    0.000021  -0.000000   0.000000  -0.000000  -0.000000   0.000000
              31         32         33         34         35         36
     1  C    0.000000  -0.000000   0.000000  -0.000000   0.000000  -0.000000
     2  N   -0.000002   0.000000   0.000154   0.000003   0.000001  -0.000000
     3  O   -0.000000  -0.000000   0.000000   0.000000   0.000000  -0.000000
     4  C   -0.000003  -0.000000  -0.000001   0.000000   0.000000  -0.000000
     5  N    0.000000  -0.000001   0.003056  -0.047148  -0.028742  -0.009512
     6  O   -0.000231  -0.002394  -0.000091  -0.000000  -0.000000  -0.000000
     7  C   -0.000000  -0.000002  -0.001982   0.000533  -0.000019  -0.000335
     8  O   -0.000000  -0.000001  -0.001544   0.007492   0.000548  -0.000317
     9  C   -0.000170  -0.000194  -0.009041  -0.000143  -0.000008   0.000010
    10  C    0.004162   0.003884  -0.050780   0.000233   0.000009  -0.000000
    11  C   -0.039403   0.000533   0.006654   0.000002   0.000000   0.000000
    12  C    0.344307   0.006219   0.000512  -0.000000  -0.000000  -0.000000
    13  C   -0.035905  -0.040393   0.003813   0.000002  -0.000000   0.000000
    14  C    0.006849   0.344319  -0.038804  -0.000050  -0.000008   0.000000
    15  C    0.000357  -0.036103   0.336139   0.000876   0.000119  -0.000013
    16  C    0.000000   0.000016   0.000030  -0.001350   0.005629   0.000955
    17  C    0.000000   0.000001  -0.001009   0.398721   0.374300  -0.001231
    18  C    0.000000  -0.000000   0.000360  -0.071564  -0.059057  -0.151601
    19  C    0.000000  -0.000000   0.000004  -0.001366  -0.002855  -0.325129
    20  Br   0.000000  -0.000000  -0.000000  -0.000195  -0.000099  -0.049934
    21  H    0.000000   0.000000   0.000000   0.000000  -0.000000   0.000000
    22  H    0.000001   0.000000  -0.000000   0.000000   0.000000   0.000000
    23  H   -0.000000  -0.000000  -0.000000  -0.000000  -0.000000  -0.000000
    24  H   -0.000000  -0.000000   0.000003  -0.000008  -0.000000   0.000000
    25  H    0.000000   0.000000   0.000227   0.004147  -0.004087   0.004280
    26  H   -0.000219   0.001651   0.000001  -0.000000   0.000000  -0.000000
    27  H   -0.000000  -0.000000  -0.000068  -0.000008  -0.000001   0.000026
    28  H   -0.000008   0.000003   0.000058  -0.000000  -0.000000  -0.000000
    29  H    0.000003  -0.000002   0.003316  -0.000027  -0.000011  -0.000027
    30  H   -0.006032   0.000018  -0.000216  -0.000000  -0.000000   0.000000
    31  H    0.588768  -0.000188   0.000020  -0.000000   0.000000  -0.000000
    32  H   -0.000188   0.605298  -0.006613   0.000066  -0.000001  -0.000000
    33  H    0.000020  -0.006613   0.635769   0.001722  -0.000212   0.000083
    34  H   -0.000000   0.000066   0.001722   0.514977  -0.029667   0.011209
    35  H    0.000000  -0.000001  -0.000212  -0.029667   0.528658  -0.006181
    36  H   -0.000000  -0.000000   0.000083   0.011209  -0.006181   0.939945
    37  H    0.000000  -0.000000   0.000032  -0.013671   0.008423   0.068140
    38  H    0.000000  -0.000000   0.000001   0.000375   0.003161   0.322666
    39  H   -0.000000   0.000000   0.000004   0.004642  -0.000006   0.075314
              37         38         39
     1  C   -0.000000  -0.000000  -0.000000
     2  N   -0.000001  -0.000000  -0.000000
     3  O    0.000000   0.000000  -0.000000
     4  C    0.000000   0.000000  -0.000000
     5  N    0.003483   0.003089   0.000141
     6  O    0.000000   0.000000  -0.000000
     7  C    0.000030  -0.000027  -0.000004
     8  O    0.003570  -0.000055  -0.000175
     9  C   -0.000000   0.000001   0.000000
    10  C   -0.000001   0.000000  -0.000000
    11  C    0.000000   0.000000   0.000000
    12  C    0.000000  -0.000000  -0.000000
    13  C    0.000000   0.000000   0.000000
    14  C    0.000000   0.000000   0.000000
    15  C   -0.000013  -0.000000  -0.000001
    16  C    0.002656   0.000822  -0.000008
    17  C   -0.032124  -0.006570   0.000114
    18  C    0.032630  -0.375778  -0.206484
    19  C   -0.225207   0.075933   0.064273
    20  Br  -0.024866  -0.175143  -0.171756
    21  H   -0.000000  -0.000000   0.000000
    22  H   -0.000000  -0.000000  -0.000000
    23  H    0.000000   0.000000   0.000000
    24  H   -0.000003   0.000000   0.000000
    25  H   -0.000124  -0.000197   0.000021
    26  H   -0.000000  -0.000000  -0.000000
    27  H    0.000001   0.000004   0.000000
    28  H    0.000000  -0.000000  -0.000000
    29  H   -0.000002  -0.000001  -0.000000
    30  H    0.000000   0.000000   0.000000
    31  H    0.000000   0.000000  -0.000000
    32  H   -0.000000  -0.000000   0.000000
    33  H    0.000032   0.000001   0.000004
    34  H   -0.013671   0.000375   0.004642
    35  H    0.008423   0.003161  -0.000006
    36  H    0.068140   0.322666   0.075314
    37  H    0.770601   0.065272   0.184447
    38  H    0.065272   0.950786   0.080894
    39  H    0.184447   0.080894   0.911809
 Mulliken charges:
               1
     1  C   -0.535538
     2  N   -0.589846
     3  O   -0.533022
     4  C    0.593949
     5  N   -0.582015
     6  O   -0.656380
     7  C   -0.032303
     8  O   -0.521038
     9  C   -0.376150
    10  C    0.178571
    11  C   -0.207142
    12  C   -0.153443
    13  C    0.327724
    14  C   -0.172458
    15  C   -0.185891
    16  C    0.626649
    17  C   -0.173994
    18  C   -0.185756
    19  C   -0.207322
    20  Br  -0.105609
    21  H    0.151524
    22  H    0.184290
    23  H    0.188674
    24  H    0.352281
    25  H    0.346957
    26  H    0.410641
    27  H    0.179880
    28  H    0.203253
    29  H    0.125659
    30  H    0.147644
    31  H    0.137695
    32  H    0.123886
    33  H    0.118404
    34  H    0.220199
    35  H    0.210107
    36  H    0.121653
    37  H    0.156728
    38  H    0.054768
    39  H    0.056776
 Sum of Mulliken charges =  -0.00000
 Mulliken charges with hydrogens summed into heavy atoms:
               1
     1  C   -0.011051
     2  N   -0.237565
     3  O   -0.533022
     4  C    0.593949
     5  N   -0.235058
     6  O   -0.245739
     7  C    0.147577
     8  O   -0.521038
     9  C   -0.047238
    10  C    0.178571
    11  C   -0.059498
    12  C   -0.015749
    13  C    0.327724
    14  C   -0.048572
    15  C   -0.067487
    16  C    0.626649
    17  C    0.256312
    18  C    0.092624
    19  C   -0.095779
    20  Br  -0.105609
 Electronic spatial extent (au):  <R**2>=          11351.9830
 Charge=             -0.0000 electrons
 Dipole moment (field-independent basis, Debye):
    X=             -1.9167    Y=             -3.5103    Z=              2.8481  Tot=              4.9099
 Quadrupole moment (field-independent basis, Debye-Ang):
   XX=           -156.4016   YY=           -124.8655   ZZ=           -130.1850
   XY=              7.0813   XZ=              6.8944   YZ=            -12.0573
 Traceless Quadrupole moment (field-independent basis, Debye-Ang):
   XX=            -19.2509   YY=             12.2852   ZZ=              6.9657
   XY=              7.0813   XZ=              6.8944   YZ=            -12.0573
 Octapole moment (field-independent basis, Debye-Ang**2):
  XXX=              9.7876  YYY=            -77.4451  ZZZ=              1.0705  XYY=             38.2628
  XXY=            -36.5426  XXZ=              1.0326  XZZ=             64.4795  YZZ=             14.2828
  YYZ=            -26.6319  XYZ=             32.8772
 Hexadecapole moment (field-independent basis, Debye-Ang**3):
 XXXX=         -10087.0516 YYYY=          -2511.4541 ZZZZ=           -700.8023 XXXY=            194.0139
 XXXZ=            -67.1635 YYYX=            347.1218 YYYZ=           -103.4798 ZZZX=            -36.8519
 ZZZY=             -7.9243 XXYY=          -1979.6517 XXZZ=          -1825.4818 YYZZ=           -611.6916
 XXYZ=           -155.3524 YYXZ=             55.2993 ZZXY=            -59.6988
 N-N= 1.892308491939D+03 E-N=-1.196696309936D+04  KE= 3.430102975636D+03
 No NMR shielding tensors so no spin-rotation constants.
 Leave Link  601 at Sun Mar 22 21:52:15 2020, MaxMem= 13421772800 cpu:               5.3 elap:               0.3
 (Enter /apps/gaussian/g16-c01-avx/g16/l9999.exe)
 Unable to Open any file for archive entry.
 1\1\GINC-CX1-141-15-3\SP\RB3LYP\6-31G(d)\C14H19Br1N2O3\JMF02\22-Mar-20
 20\0\\#p sp b3lyp/6-31g*\\lig-h.pdb\\0,1\C,0,7.712,4.976,22.568\N,0,7.
 991,2.594,22.44\O,0,6.307,3.385,23.664\C,0,7.281,3.596,22.95\N,0,9.096
 ,-0.844,22.611\O,0,5.702,0.784,16.93\C,0,7.866,1.223,22.914\O,0,9.866,
 1.017,21.611\C,0,6.526,0.583,22.515\C,0,6.273,0.626,21.028\C,0,5.386,1
 .538,20.475\C,0,5.174,1.599,19.108\C,0,5.863,0.737,18.273\C,0,6.755,-0
 .172,18.802\C,0,6.951,-0.224,20.169\C,0,9.043,0.453,22.33\C,0,9.98,-1.
 728,21.882\C,0,11.351,-1.592,22.376\C,0,12.458,-1.642,22.833\Br,0,14.1
 8,-1.925,23.66\H,0,8.693,4.932,22.095\H,0,6.992,5.402,21.87\H,0,7.767,
 5.6,23.46\H,0,8.643,2.792,21.694\H,0,8.511,-1.219,23.344\H,0,5.313,-0.
 039,16.625\H,0,7.88,1.201,24.004\H,0,5.734,1.156,22.997\H,0,6.527,-0.4
 58,22.838\H,0,4.845,2.221,21.13\H,0,4.47,2.32,18.693\H,0,7.303,-0.847,
 18.145\H,0,7.654,-0.949,20.58\H,0,9.955,-1.463,20.825\H,0,9.649,-2.758
 ,22.014\H,0,10.968,-1.771,23.381\H,0,11.72,-1.28,21.399\H,0,12.012,-1.
 669,23.827\H,0,12.91,-1.502,21.851\\Version=ES64L-G16RevC.01\State=1-A
 \HF=-3451.2808406\RMSD=3.570e-09\Dipole=-1.277368,-1.3113579,-0.616601
 3\Quadrupole=-12.7412007,10.719487,2.0217136,11.7837392,2.4499942,2.52
 45074\PG=C01 [X(C14H19Br1N2O3)]\\@
 The archive entry for this job was punched.


 YOU CAN WIPE THE SLATE CLEAN, BUT YOU'LL STILL
 HAVE TO EAT A LITTLE CHALK DUST.
 Job cpu time:       0 days  0 hours 13 minutes 40.8 seconds.
 Elapsed time:       0 days  0 hours  0 minutes 41.2 seconds.
 File lengths (MBytes):  RWF=     72 Int=      0 D2E=      0 Chk=      8 Scr=      1
 Normal termination of Gaussian 16 at Sun Mar 22 21:52:16 2020.
